MODEL 1
REMARK VINA RESULT:   -10.332      0.000      0.000
REMARK INTER + INTRA:         -13.937
REMARK INTER:                 -12.748
REMARK INTRA:                  -1.189
REMARK UNBOUND:                -1.189
REMARK SMILES CCNC(=O)Nc1sc2ccccc2c1C(=O)N1CCC(N2CCC[C@@]3(C2)CC(C)(C)OC3=O)CC1
REMARK SMILES IDX 14 1 13 2 12 3 11 4 10 5 9 6 8 7 7 8 15 9 16 10 18 11 17 12
REMARK SMILES IDX 19 13 36 14 20 15 35 16 21 17 22 18 23 19 27 20 24 21 26 22
REMARK SMILES IDX 25 23 33 24 28 25 34 26 32 27 29 28 30 29 31 30 6 31 4 32
REMARK SMILES IDX 5 33 3 34 2 37 1 38
REMARK H PARENT 6 35 3 36
REMARK INDEX MAP 1 1 2 2 3 3 4 4 5 5 6 6 7 7 8 8 13 9 14 10 15 11 16 12 17 13
REMARK INDEX MAP 19 14 18 15 20 16 21 17 22 18 23 19 26 20 24 21 27 22 25 23
REMARK INDEX MAP 28 24 31 25 29 26 30 27 32 28 33 29 34 30 9 31 10 32 11 33
REMARK INDEX MAP 12 34 41 35 42 36 35 37 36 38
ROOT
ATOM      1  C   UNL     1      37.928  66.811  53.985  1.00  0.00    +0.007 A 
ATOM      2  C   UNL     1      37.063  67.046  52.884  1.00  0.00    +0.010 A 
ATOM      3  C   UNL     1      37.342  68.052  51.953  1.00  0.00    +0.001 A 
ATOM      4  C   UNL     1      38.479  68.833  52.089  1.00  0.00    +0.002 A 
ATOM      5  C   UNL     1      39.363  68.615  53.147  1.00  0.00    +0.020 A 
ATOM      6  C   UNL     1      39.080  67.596  54.078  1.00  0.00    +0.037 A 
ATOM      7  S   UNL     1      40.041  67.137  55.423  1.00  0.00    -0.117 S 
ATOM      8  C   UNL     1      39.001  65.876  55.850  1.00  0.00    +0.110 A 
ATOM      9  C   UNL     1      37.850  65.861  55.079  1.00  0.00    +0.082 A 
ENDROOT
BRANCH   9  10
ATOM     10  C   UNL     1      36.760  64.925  55.351  1.00  0.00    +0.257 C 
ATOM     11  N   UNL     1      36.689  63.758  54.583  1.00  0.00    -0.338 N 
ATOM     12  O   UNL     1      35.902  65.202  56.189  1.00  0.00    -0.269 OA
ATOM     13  C   UNL     1      37.283  63.633  53.251  1.00  0.00    +0.121 C 
ATOM     14  C   UNL     1      35.674  62.772  54.903  1.00  0.00    +0.121 C 
ATOM     15  C   UNL     1      36.402  62.832  52.283  1.00  0.00    +0.041 C 
ATOM     16  C   UNL     1      34.495  62.871  53.941  1.00  0.00    +0.041 C 
ATOM     17  C   UNL     1      34.911  63.185  52.475  1.00  0.00    +0.060 C 
BRANCH  17  18
ATOM     18  N   UNL     1      33.987  62.509  51.522  1.00  0.00    -0.299 NA
ATOM     19  C   UNL     1      32.769  63.308  51.296  1.00  0.00    +0.085 C 
ATOM     20  C   UNL     1      34.621  62.219  50.214  1.00  0.00    +0.103 C 
ATOM     21  C   UNL     1      31.699  62.479  50.584  1.00  0.00    +0.017 C 
ATOM     22  C   UNL     1      33.650  61.741  49.105  1.00  0.00    +0.084 C 
ATOM     23  C   UNL     1      32.261  61.404  49.656  1.00  0.00    +0.021 C 
ATOM     24  C   UNL     1      33.578  62.790  48.011  1.00  0.00    +0.314 C 
ATOM     25  C   UNL     1      34.199  60.548  48.312  1.00  0.00    +0.068 C 
ATOM     26  O   UNL     1      32.964  63.844  48.068  1.00  0.00    -0.252 OA
ATOM     27  O   UNL     1      34.326  62.425  46.929  1.00  0.00    -0.459 OA
ATOM     28  C   UNL     1      34.969  61.165  47.155  1.00  0.00    +0.108 C 
ATOM     29  C   UNL     1      36.447  61.408  47.465  1.00  0.00    +0.056 C 
ATOM     30  C   UNL     1      34.840  60.325  45.885  1.00  0.00    +0.056 C 
ENDBRANCH  17  18
ENDBRANCH   9  10
BRANCH   8  31
ATOM     31  N   UNL     1      39.293  65.001  56.886  1.00  0.00    -0.299 N 
ATOM     32  C   UNL     1      39.711  63.690  56.788  1.00  0.00    +0.319 C 
ATOM     33  O   UNL     1      39.906  63.040  55.771  1.00  0.00    -0.248 OA
ATOM     34  N   UNL     1      39.896  63.148  58.050  1.00  0.00    -0.338 N 
ATOM     35  H   UNL     1      38.987  65.305  57.803  1.00  0.00    +0.172 HD
ATOM     36  H   UNL     1      40.057  63.795  58.807  1.00  0.00    +0.165 HD
BRANCH  34  37
ATOM     37  C   UNL     1      40.395  61.799  58.218  1.00  0.00    +0.114 C 
ATOM     38  C   UNL     1      41.900  61.770  58.412  1.00  0.00    +0.027 C 
ENDBRANCH  34  37
ENDBRANCH   8  31
TORSDOF 4
ENDMDL
MODEL 2
REMARK VINA RESULT:    -9.863      1.986      3.096
REMARK INTER + INTRA:         -13.358
REMARK INTER:                 -12.058
REMARK INTRA:                  -1.300
REMARK UNBOUND:                -1.189
REMARK SMILES CCNC(=O)Nc1sc2ccccc2c1C(=O)N1CCC(N2CCC[C@@]3(C2)CC(C)(C)OC3=O)CC1
REMARK SMILES IDX 14 1 13 2 12 3 11 4 10 5 9 6 8 7 7 8 15 9 16 10 18 11 17 12
REMARK SMILES IDX 19 13 36 14 20 15 35 16 21 17 22 18 23 19 27 20 24 21 26 22
REMARK SMILES IDX 25 23 33 24 28 25 34 26 32 27 29 28 30 29 31 30 6 31 4 32
REMARK SMILES IDX 5 33 3 34 2 37 1 38
REMARK H PARENT 6 35 3 36
REMARK INDEX MAP 1 1 2 2 3 3 4 4 5 5 6 6 7 7 8 8 13 9 14 10 15 11 16 12 17 13
REMARK INDEX MAP 19 14 18 15 20 16 21 17 22 18 23 19 26 20 24 21 27 22 25 23
REMARK INDEX MAP 28 24 31 25 29 26 30 27 32 28 33 29 34 30 9 31 10 32 11 33
REMARK INDEX MAP 12 34 41 35 42 36 35 37 36 38
ROOT
ATOM      1  C   UNL     1      37.905  66.681  54.862  1.00  0.00    +0.007 A 
ATOM      2  C   UNL     1      37.007  67.439  54.065  1.00  0.00    +0.010 A 
ATOM      3  C   UNL     1      37.382  68.682  53.544  1.00  0.00    +0.001 A 
ATOM      4  C   UNL     1      38.647  69.191  53.795  1.00  0.00    +0.002 A 
ATOM      5  C   UNL     1      39.563  68.464  54.558  1.00  0.00    +0.020 A 
ATOM      6  C   UNL     1      39.181  67.209  55.073  1.00  0.00    +0.037 A 
ATOM      7  S   UNL     1      40.153  66.140  55.998  1.00  0.00    -0.117 S 
ATOM      8  C   UNL     1      38.945  64.960  56.070  1.00  0.00    +0.110 A 
ATOM      9  C   UNL     1      37.750  65.400  55.523  1.00  0.00    +0.082 A 
ENDROOT
BRANCH   9  10
ATOM     10  C   UNL     1      36.538  64.583  55.582  1.00  0.00    +0.257 C 
ATOM     11  N   UNL     1      36.280  63.713  54.518  1.00  0.00    -0.338 N 
ATOM     12  O   UNL     1      35.746  64.719  56.514  1.00  0.00    -0.269 OA
ATOM     13  C   UNL     1      36.825  63.901  53.173  1.00  0.00    +0.121 C 
ATOM     14  C   UNL     1      35.136  62.825  54.604  1.00  0.00    +0.121 C 
ATOM     15  C   UNL     1      35.817  63.546  52.071  1.00  0.00    +0.041 C 
ATOM     16  C   UNL     1      33.968  63.362  53.783  1.00  0.00    +0.041 C 
ATOM     17  C   UNL     1      34.399  64.029  52.446  1.00  0.00    +0.060 C 
BRANCH  17  18
ATOM     18  N   UNL     1      33.368  63.794  51.398  1.00  0.00    -0.299 NA
ATOM     19  C   UNL     1      33.984  63.430  50.108  1.00  0.00    +0.085 C 
ATOM     20  C   UNL     1      32.391  62.746  51.775  1.00  0.00    +0.103 C 
ATOM     21  C   UNL     1      32.961  63.505  48.975  1.00  0.00    +0.017 C 
ATOM     22  C   UNL     1      31.445  62.287  50.637  1.00  0.00    +0.084 C 
ATOM     23  C   UNL     1      31.528  63.202  49.411  1.00  0.00    +0.021 C 
ATOM     24  C   UNL     1      31.748  60.844  50.280  1.00  0.00    +0.314 C 
ATOM     25  C   UNL     1      29.986  62.162  51.095  1.00  0.00    +0.068 C 
ATOM     26  O   UNL     1      32.699  60.454  49.622  1.00  0.00    -0.252 OA
ATOM     27  O   UNL     1      30.822  59.999  50.820  1.00  0.00    -0.459 OA
ATOM     28  C   UNL     1      29.847  60.726  51.576  1.00  0.00    +0.108 C 
ATOM     29  C   UNL     1      30.141  60.551  53.068  1.00  0.00    +0.056 C 
ATOM     30  C   UNL     1      28.465  60.157  51.253  1.00  0.00    +0.056 C 
ENDBRANCH  17  18
ENDBRANCH   9  10
BRANCH   8  31
ATOM     31  N   UNL     1      39.163  63.721  56.653  1.00  0.00    -0.299 N 
ATOM     32  C   UNL     1      39.251  63.427  57.997  1.00  0.00    +0.319 C 
ATOM     33  O   UNL     1      39.155  64.198  58.941  1.00  0.00    -0.248 OA
ATOM     34  N   UNL     1      39.479  62.072  58.180  1.00  0.00    -0.338 N 
ATOM     35  H   UNL     1      39.474  62.996  56.015  1.00  0.00    +0.172 HD
ATOM     36  H   UNL     1      39.210  61.457  57.428  1.00  0.00    +0.165 HD
BRANCH  34  37
ATOM     37  C   UNL     1      39.549  61.499  59.508  1.00  0.00    +0.114 C 
ATOM     38  C   UNL     1      40.975  61.437  60.026  1.00  0.00    +0.027 C 
ENDBRANCH  34  37
ENDBRANCH   8  31
TORSDOF 4
ENDMDL
MODEL 3
REMARK VINA RESULT:    -9.804      2.059      4.454
REMARK INTER + INTRA:         -13.286
REMARK INTER:                 -12.078
REMARK INTRA:                  -1.208
REMARK UNBOUND:                -1.189
REMARK SMILES CCNC(=O)Nc1sc2ccccc2c1C(=O)N1CCC(N2CCC[C@@]3(C2)CC(C)(C)OC3=O)CC1
REMARK SMILES IDX 14 1 13 2 12 3 11 4 10 5 9 6 8 7 7 8 15 9 16 10 18 11 17 12
REMARK SMILES IDX 19 13 36 14 20 15 35 16 21 17 22 18 23 19 27 20 24 21 26 22
REMARK SMILES IDX 25 23 33 24 28 25 34 26 32 27 29 28 30 29 31 30 6 31 4 32
REMARK SMILES IDX 5 33 3 34 2 37 1 38
REMARK H PARENT 6 35 3 36
REMARK INDEX MAP 1 1 2 2 3 3 4 4 5 5 6 6 7 7 8 8 13 9 14 10 15 11 16 12 17 13
REMARK INDEX MAP 19 14 18 15 20 16 21 17 22 18 23 19 26 20 24 21 27 22 25 23
REMARK INDEX MAP 28 24 31 25 29 26 30 27 32 28 33 29 34 30 9 31 10 32 11 33
REMARK INDEX MAP 12 34 41 35 42 36 35 37 36 38
ROOT
ATOM      1  C   UNL     1      38.186  65.675  56.193  1.00  0.00    +0.007 A 
ATOM      2  C   UNL     1      37.577  65.215  57.391  1.00  0.00    +0.010 A 
ATOM      3  C   UNL     1      38.352  64.768  58.466  1.00  0.00    +0.001 A 
ATOM      4  C   UNL     1      39.735  64.776  58.380  1.00  0.00    +0.002 A 
ATOM      5  C   UNL     1      40.369  65.240  57.225  1.00  0.00    +0.020 A 
ATOM      6  C   UNL     1      39.582  65.695  56.149  1.00  0.00    +0.037 A 
ATOM      7  S   UNL     1      40.149  66.337  54.662  1.00  0.00    -0.117 S 
ATOM      8  C   UNL     1      38.587  66.652  54.099  1.00  0.00    +0.110 A 
ATOM      9  C   UNL     1      37.613  66.159  54.952  1.00  0.00    +0.082 A 
ENDROOT
BRANCH   9  10
ATOM     10  C   UNL     1      36.193  66.219  54.605  1.00  0.00    +0.257 C 
ATOM     11  N   UNL     1      35.461  65.028  54.630  1.00  0.00    -0.338 N 
ATOM     12  O   UNL     1      35.691  67.282  54.241  1.00  0.00    -0.269 OA
ATOM     13  C   UNL     1      36.069  63.705  54.486  1.00  0.00    +0.121 C 
ATOM     14  C   UNL     1      34.032  65.083  54.384  1.00  0.00    +0.121 C 
ATOM     15  C   UNL     1      35.216  62.750  53.639  1.00  0.00    +0.041 C 
ATOM     16  C   UNL     1      33.708  64.659  52.955  1.00  0.00    +0.041 C 
ATOM     17  C   UNL     1      34.593  63.491  52.436  1.00  0.00    +0.060 C 
BRANCH  17  18
ATOM     18  N   UNL     1      33.809  62.622  51.513  1.00  0.00    -0.299 NA
ATOM     19  C   UNL     1      32.497  63.216  51.200  1.00  0.00    +0.085 C 
ATOM     20  C   UNL     1      34.522  62.338  50.245  1.00  0.00    +0.103 C 
ATOM     21  C   UNL     1      31.583  62.192  50.527  1.00  0.00    +0.017 C 
ATOM     22  C   UNL     1      33.669  61.648  49.152  1.00  0.00    +0.084 C 
ATOM     23  C   UNL     1      32.326  61.149  49.693  1.00  0.00    +0.021 C 
ATOM     24  C   UNL     1      33.484  62.596  47.982  1.00  0.00    +0.314 C 
ATOM     25  C   UNL     1      34.412  60.495  48.462  1.00  0.00    +0.068 C 
ATOM     26  O   UNL     1      32.722  63.549  47.947  1.00  0.00    -0.252 OA
ATOM     27  O   UNL     1      34.313  62.270  46.948  1.00  0.00    -0.459 OA
ATOM     28  C   UNL     1      35.123  61.137  47.281  1.00  0.00    +0.108 C 
ATOM     29  C   UNL     1      36.539  61.615  47.607  1.00  0.00    +0.056 C 
ATOM     30  C   UNL     1      35.161  60.201  46.074  1.00  0.00    +0.056 C 
ENDBRANCH  17  18
ENDBRANCH   9  10
BRANCH   8  31
ATOM     31  N   UNL     1      38.358  67.302  52.896  1.00  0.00    -0.299 N 
ATOM     32  C   UNL     1      38.392  68.659  52.652  1.00  0.00    +0.319 C 
ATOM     33  O   UNL     1      38.631  69.557  53.447  1.00  0.00    -0.248 OA
ATOM     34  N   UNL     1      38.103  68.917  51.322  1.00  0.00    -0.338 N 
ATOM     35  H   UNL     1      37.940  66.728  52.172  1.00  0.00    +0.172 HD
ATOM     36  H   UNL     1      38.256  68.166  50.666  1.00  0.00    +0.165 HD
BRANCH  34  37
ATOM     37  C   UNL     1      38.137  70.267  50.798  1.00  0.00    +0.114 C 
ATOM     38  C   UNL     1      38.515  70.297  49.329  1.00  0.00    +0.027 C 
ENDBRANCH  34  37
ENDBRANCH   8  31
TORSDOF 4
ENDMDL
MODEL 4
REMARK VINA RESULT:    -9.411      3.338      9.537
REMARK INTER + INTRA:         -12.800
REMARK INTER:                 -11.467
REMARK INTRA:                  -1.334
REMARK UNBOUND:                -1.189
REMARK SMILES CCNC(=O)Nc1sc2ccccc2c1C(=O)N1CCC(N2CCC[C@@]3(C2)CC(C)(C)OC3=O)CC1
REMARK SMILES IDX 14 1 13 2 12 3 11 4 10 5 9 6 8 7 7 8 15 9 16 10 18 11 17 12
REMARK SMILES IDX 19 13 36 14 20 15 35 16 21 17 22 18 23 19 27 20 24 21 26 22
REMARK SMILES IDX 25 23 33 24 28 25 34 26 32 27 29 28 30 29 31 30 6 31 4 32
REMARK SMILES IDX 5 33 3 34 2 37 1 38
REMARK H PARENT 6 35 3 36
REMARK INDEX MAP 1 1 2 2 3 3 4 4 5 5 6 6 7 7 8 8 13 9 14 10 15 11 16 12 17 13
REMARK INDEX MAP 19 14 18 15 20 16 21 17 22 18 23 19 26 20 24 21 27 22 25 23
REMARK INDEX MAP 28 24 31 25 29 26 30 27 32 28 33 29 34 30 9 31 10 32 11 33
REMARK INDEX MAP 12 34 41 35 42 36 35 37 36 38
ROOT
ATOM      1  C   UNL     1      33.735  60.135  47.732  1.00  0.00    +0.007 A 
ATOM      2  C   UNL     1      34.403  60.897  46.737  1.00  0.00    +0.010 A 
ATOM      3  C   UNL     1      35.102  60.270  45.700  1.00  0.00    +0.001 A 
ATOM      4  C   UNL     1      35.147  58.886  45.625  1.00  0.00    +0.002 A 
ATOM      5  C   UNL     1      34.485  58.105  46.575  1.00  0.00    +0.020 A 
ATOM      6  C   UNL     1      33.776  58.743  47.612  1.00  0.00    +0.037 A 
ATOM      7  S   UNL     1      32.869  57.983  48.855  1.00  0.00    -0.117 S 
ATOM      8  C   UNL     1      32.365  59.457  49.511  1.00  0.00    +0.110 A 
ATOM      9  C   UNL     1      32.975  60.539  48.899  1.00  0.00    +0.082 A 
ENDROOT
BRANCH   9  10
ATOM     10  C   UNL     1      32.772  61.905  49.384  1.00  0.00    +0.257 C 
ATOM     11  N   UNL     1      33.894  62.625  49.805  1.00  0.00    -0.338 N 
ATOM     12  O   UNL     1      31.635  62.366  49.474  1.00  0.00    -0.269 OA
ATOM     13  C   UNL     1      35.133  61.993  50.260  1.00  0.00    +0.121 C 
ATOM     14  C   UNL     1      33.726  64.012  50.197  1.00  0.00    +0.121 C 
ATOM     15  C   UNL     1      35.768  62.724  51.451  1.00  0.00    +0.041 C 
ATOM     16  C   UNL     1      33.698  64.149  51.716  1.00  0.00    +0.041 C 
ATOM     17  C   UNL     1      34.686  63.196  52.446  1.00  0.00    +0.060 C 
BRANCH  17  18
ATOM     18  N   UNL     1      35.219  63.850  53.674  1.00  0.00    -0.299 NA
ATOM     19  C   UNL     1      35.899  62.878  54.550  1.00  0.00    +0.085 C 
ATOM     20  C   UNL     1      36.152  64.963  53.376  1.00  0.00    +0.103 C 
ATOM     21  C   UNL     1      36.155  63.478  55.933  1.00  0.00    +0.017 C 
ATOM     22  C   UNL     1      36.922  65.521  54.599  1.00  0.00    +0.084 C 
ATOM     23  C   UNL     1      36.366  64.991  55.925  1.00  0.00    +0.021 C 
ATOM     24  C   UNL     1      38.400  65.213  54.449  1.00  0.00    +0.314 C 
ATOM     25  C   UNL     1      36.957  67.055  54.626  1.00  0.00    +0.068 C 
ATOM     26  O   UNL     1      38.928  64.129  54.636  1.00  0.00    -0.252 OA
ATOM     27  O   UNL     1      39.093  66.316  54.039  1.00  0.00    -0.459 OA
ATOM     28  C   UNL     1      38.215  67.432  53.859  1.00  0.00    +0.108 C 
ATOM     29  C   UNL     1      37.978  67.644  52.363  1.00  0.00    +0.056 C 
ATOM     30  C   UNL     1      38.883  68.671  54.455  1.00  0.00    +0.056 C 
ENDBRANCH  17  18
ENDBRANCH   9  10
BRANCH   8  31
ATOM     31  N   UNL     1      31.468  59.522  50.567  1.00  0.00    -0.299 N 
ATOM     32  C   UNL     1      30.123  59.216  50.549  1.00  0.00    +0.319 C 
ATOM     33  O   UNL     1      29.456  58.828  49.600  1.00  0.00    -0.248 OA
ATOM     34  N   UNL     1      29.568  59.412  51.803  1.00  0.00    -0.338 N 
ATOM     35  H   UNL     1      31.802  60.023  51.382  1.00  0.00    +0.172 HD
ATOM     36  H   UNL     1      30.197  59.391  52.591  1.00  0.00    +0.165 HD
BRANCH  34  37
ATOM     37  C   UNL     1      28.177  59.100  52.061  1.00  0.00    +0.114 C 
ATOM     38  C   UNL     1      27.865  59.085  53.547  1.00  0.00    +0.027 C 
ENDBRANCH  34  37
ENDBRANCH   8  31
TORSDOF 4
ENDMDL
MODEL 5
REMARK VINA RESULT:    -9.209      3.432      9.510
REMARK INTER + INTRA:         -12.552
REMARK INTER:                 -11.297
REMARK INTRA:                  -1.255
REMARK UNBOUND:                -1.189
REMARK SMILES CCNC(=O)Nc1sc2ccccc2c1C(=O)N1CCC(N2CCC[C@@]3(C2)CC(C)(C)OC3=O)CC1
REMARK SMILES IDX 14 1 13 2 12 3 11 4 10 5 9 6 8 7 7 8 15 9 16 10 18 11 17 12
REMARK SMILES IDX 19 13 36 14 20 15 35 16 21 17 22 18 23 19 27 20 24 21 26 22
REMARK SMILES IDX 25 23 33 24 28 25 34 26 32 27 29 28 30 29 31 30 6 31 4 32
REMARK SMILES IDX 5 33 3 34 2 37 1 38
REMARK H PARENT 6 35 3 36
REMARK INDEX MAP 1 1 2 2 3 3 4 4 5 5 6 6 7 7 8 8 13 9 14 10 15 11 16 12 17 13
REMARK INDEX MAP 19 14 18 15 20 16 21 17 22 18 23 19 26 20 24 21 27 22 25 23
REMARK INDEX MAP 28 24 31 25 29 26 30 27 32 28 33 29 34 30 9 31 10 32 11 33
REMARK INDEX MAP 12 34 41 35 42 36 35 37 36 38
ROOT
ATOM      1  C   UNL     1      34.258  59.910  47.231  1.00  0.00    +0.007 A 
ATOM      2  C   UNL     1      35.010  60.373  46.118  1.00  0.00    +0.010 A 
ATOM      3  C   UNL     1      35.542  59.476  45.188  1.00  0.00    +0.001 A 
ATOM      4  C   UNL     1      35.337  58.113  45.334  1.00  0.00    +0.002 A 
ATOM      5  C   UNL     1      34.585  57.623  46.405  1.00  0.00    +0.020 A 
ATOM      6  C   UNL     1      34.045  58.533  47.335  1.00  0.00    +0.037 A 
ATOM      7  S   UNL     1      33.068  58.154  48.694  1.00  0.00    -0.117 S 
ATOM      8  C   UNL     1      32.863  59.779  49.112  1.00  0.00    +0.110 A 
ATOM      9  C   UNL     1      33.630  60.623  48.327  1.00  0.00    +0.082 A 
ENDROOT
BRANCH   9  10
ATOM     10  C   UNL     1      33.695  62.061  48.589  1.00  0.00    +0.257 C 
ATOM     11  N   UNL     1      34.803  62.552  49.286  1.00  0.00    -0.338 N 
ATOM     12  O   UNL     1      32.761  62.792  48.259  1.00  0.00    -0.269 OA
ATOM     13  C   UNL     1      35.623  61.731  50.178  1.00  0.00    +0.121 C 
ATOM     14  C   UNL     1      34.933  63.985  49.470  1.00  0.00    +0.121 C 
ATOM     15  C   UNL     1      36.067  62.488  51.438  1.00  0.00    +0.041 C 
ATOM     16  C   UNL     1      34.506  64.394  50.876  1.00  0.00    +0.041 C 
ATOM     17  C   UNL     1      34.925  63.377  51.976  1.00  0.00    +0.060 C 
BRANCH  17  18
ATOM     18  N   UNL     1      35.242  64.092  53.244  1.00  0.00    -0.299 NA
ATOM     19  C   UNL     1      34.268  63.769  54.302  1.00  0.00    +0.085 C 
ATOM     20  C   UNL     1      36.607  63.800  53.743  1.00  0.00    +0.103 C 
ATOM     21  C   UNL     1      34.404  64.733  55.480  1.00  0.00    +0.017 C 
ATOM     22  C   UNL     1      36.909  64.316  55.172  1.00  0.00    +0.084 C 
ATOM     23  C   UNL     1      35.821  65.265  55.688  1.00  0.00    +0.021 C 
ATOM     24  C   UNL     1      37.108  63.135  56.104  1.00  0.00    +0.314 C 
ATOM     25  C   UNL     1      38.282  64.992  55.280  1.00  0.00    +0.068 C 
ATOM     26  O   UNL     1      36.224  62.430  56.565  1.00  0.00    -0.252 OA
ATOM     27  O   UNL     1      38.433  62.924  56.354  1.00  0.00    -0.459 OA
ATOM     28  C   UNL     1      39.243  63.872  55.650  1.00  0.00    +0.108 C 
ATOM     29  C   UNL     1      39.876  63.185  54.439  1.00  0.00    +0.056 C 
ATOM     30  C   UNL     1      40.339  64.364  56.595  1.00  0.00    +0.056 C 
ENDBRANCH  17  18
ENDBRANCH   9  10
BRANCH   8  31
ATOM     31  N   UNL     1      32.036  60.169  50.154  1.00  0.00    -0.299 N 
ATOM     32  C   UNL     1      30.717  59.822  50.358  1.00  0.00    +0.319 C 
ATOM     33  O   UNL     1      30.016  59.101  49.662  1.00  0.00    -0.248 OA
ATOM     34  N   UNL     1      30.234  60.418  51.512  1.00  0.00    -0.338 N 
ATOM     35  H   UNL     1      32.388  60.937  50.716  1.00  0.00    +0.172 HD
ATOM     36  H   UNL     1      30.915  60.698  52.202  1.00  0.00    +0.165 HD
BRANCH  34  37
ATOM     37  C   UNL     1      28.888  60.159  51.980  1.00  0.00    +0.114 C 
ATOM     38  C   UNL     1      28.873  59.217  53.170  1.00  0.00    +0.027 C 
ENDBRANCH  34  37
ENDBRANCH   8  31
TORSDOF 4
ENDMDL
MODEL 6
REMARK VINA RESULT:    -8.787      2.982      8.941
REMARK INTER + INTRA:         -12.031
REMARK INTER:                 -10.992
REMARK INTRA:                  -1.038
REMARK UNBOUND:                -1.189
REMARK SMILES CCNC(=O)Nc1sc2ccccc2c1C(=O)N1CCC(N2CCC[C@@]3(C2)CC(C)(C)OC3=O)CC1
REMARK SMILES IDX 14 1 13 2 12 3 11 4 10 5 9 6 8 7 7 8 15 9 16 10 18 11 17 12
REMARK SMILES IDX 19 13 36 14 20 15 35 16 21 17 22 18 23 19 27 20 24 21 26 22
REMARK SMILES IDX 25 23 33 24 28 25 34 26 32 27 29 28 30 29 31 30 6 31 4 32
REMARK SMILES IDX 5 33 3 34 2 37 1 38
REMARK H PARENT 6 35 3 36
REMARK INDEX MAP 1 1 2 2 3 3 4 4 5 5 6 6 7 7 8 8 13 9 14 10 15 11 16 12 17 13
REMARK INDEX MAP 19 14 18 15 20 16 21 17 22 18 23 19 26 20 24 21 27 22 25 23
REMARK INDEX MAP 28 24 31 25 29 26 30 27 32 28 33 29 34 30 9 31 10 32 11 33
REMARK INDEX MAP 12 34 41 35 42 36 35 37 36 38
ROOT
ATOM      1  C   UNL     1      34.774  62.553  48.651  1.00  0.00    +0.007 A 
ATOM      2  C   UNL     1      35.667  63.192  47.751  1.00  0.00    +0.010 A 
ATOM      3  C   UNL     1      36.099  62.548  46.587  1.00  0.00    +0.001 A 
ATOM      4  C   UNL     1      35.651  61.270  46.290  1.00  0.00    +0.002 A 
ATOM      5  C   UNL     1      34.757  60.619  47.142  1.00  0.00    +0.020 A 
ATOM      6  C   UNL     1      34.320  61.277  48.309  1.00  0.00    +0.037 A 
ATOM      7  S   UNL     1      33.204  60.681  49.467  1.00  0.00    -0.117 S 
ATOM      8  C   UNL     1      33.254  62.102  50.379  1.00  0.00    +0.110 A 
ATOM      9  C   UNL     1      34.207  62.992  49.911  1.00  0.00    +0.082 A 
ENDROOT
BRANCH   9  10
ATOM     10  C   UNL     1      34.501  64.238  50.619  1.00  0.00    +0.257 C 
ATOM     11  N   UNL     1      35.768  64.384  51.193  1.00  0.00    -0.338 N 
ATOM     12  O   UNL     1      33.626  65.093  50.753  1.00  0.00    -0.269 OA
ATOM     13  C   UNL     1      36.617  63.253  51.569  1.00  0.00    +0.121 C 
ATOM     14  C   UNL     1      36.110  65.650  51.813  1.00  0.00    +0.121 C 
ATOM     15  C   UNL     1      37.367  63.489  52.887  1.00  0.00    +0.041 C 
ATOM     16  C   UNL     1      35.992  65.562  53.332  1.00  0.00    +0.041 C 
ATOM     17  C   UNL     1      36.461  64.199  53.916  1.00  0.00    +0.060 C 
BRANCH  17  18
ATOM     18  N   UNL     1      37.084  64.400  55.254  1.00  0.00    -0.299 NA
ATOM     19  C   UNL     1      36.077  64.344  56.330  1.00  0.00    +0.085 C 
ATOM     20  C   UNL     1      38.153  63.416  55.545  1.00  0.00    +0.103 C 
ATOM     21  C   UNL     1      36.658  64.862  57.646  1.00  0.00    +0.017 C 
ATOM     22  C   UNL     1      38.669  63.418  57.006  1.00  0.00    +0.084 C 
ATOM     23  C   UNL     1      38.159  64.626  57.799  1.00  0.00    +0.021 C 
ATOM     24  C   UNL     1      38.293  62.110  57.677  1.00  0.00    +0.314 C 
ATOM     25  C   UNL     1      40.199  63.347  57.093  1.00  0.00    +0.068 C 
ATOM     26  O   UNL     1      37.185  61.809  58.089  1.00  0.00    -0.252 OA
ATOM     27  O   UNL     1      39.364  61.266  57.743  1.00  0.00    -0.459 OA
ATOM     28  C   UNL     1      40.522  61.862  57.147  1.00  0.00    +0.108 C 
ATOM     29  C   UNL     1      40.751  61.236  55.770  1.00  0.00    +0.056 C 
ATOM     30  C   UNL     1      41.725  61.582  58.047  1.00  0.00    +0.056 C 
ENDBRANCH  17  18
ENDBRANCH   9  10
BRANCH   8  31
ATOM     31  N   UNL     1      32.438  62.294  51.485  1.00  0.00    -0.299 N 
ATOM     32  C   UNL     1      31.149  61.841  51.669  1.00  0.00    +0.319 C 
ATOM     33  O   UNL     1      30.470  61.180  50.896  1.00  0.00    -0.248 OA
ATOM     34  N   UNL     1      30.669  62.243  52.905  1.00  0.00    -0.338 N 
ATOM     35  H   UNL     1      32.763  62.998  52.139  1.00  0.00    +0.172 HD
ATOM     36  H   UNL     1      31.353  62.467  53.611  1.00  0.00    +0.165 HD
BRANCH  34  37
ATOM     37  C   UNL     1      29.356  61.838  53.363  1.00  0.00    +0.114 C 
ATOM     38  C   UNL     1      29.417  61.128  54.703  1.00  0.00    +0.027 C 
ENDBRANCH  34  37
ENDBRANCH   8  31
TORSDOF 4
ENDMDL
MODEL 7
REMARK VINA RESULT:    -8.780      2.698      4.805
REMARK INTER + INTRA:         -12.022
REMARK INTER:                 -11.009
REMARK INTRA:                  -1.013
REMARK UNBOUND:                -1.189
REMARK SMILES CCNC(=O)Nc1sc2ccccc2c1C(=O)N1CCC(N2CCC[C@@]3(C2)CC(C)(C)OC3=O)CC1
REMARK SMILES IDX 14 1 13 2 12 3 11 4 10 5 9 6 8 7 7 8 15 9 16 10 18 11 17 12
REMARK SMILES IDX 19 13 36 14 20 15 35 16 21 17 22 18 23 19 27 20 24 21 26 22
REMARK SMILES IDX 25 23 33 24 28 25 34 26 32 27 29 28 30 29 31 30 6 31 4 32
REMARK SMILES IDX 5 33 3 34 2 37 1 38
REMARK H PARENT 6 35 3 36
REMARK INDEX MAP 1 1 2 2 3 3 4 4 5 5 6 6 7 7 8 8 13 9 14 10 15 11 16 12 17 13
REMARK INDEX MAP 19 14 18 15 20 16 21 17 22 18 23 19 26 20 24 21 27 22 25 23
REMARK INDEX MAP 28 24 31 25 29 26 30 27 32 28 33 29 34 30 9 31 10 32 11 33
REMARK INDEX MAP 12 34 41 35 42 36 35 37 36 38
ROOT
ATOM      1  C   UNL     1      39.247  67.107  54.888  1.00  0.00    +0.007 A 
ATOM      2  C   UNL     1      39.079  66.623  56.213  1.00  0.00    +0.010 A 
ATOM      3  C   UNL     1      40.183  66.401  57.042  1.00  0.00    +0.001 A 
ATOM      4  C   UNL     1      41.465  66.660  56.582  1.00  0.00    +0.002 A 
ATOM      5  C   UNL     1      41.666  67.157  55.293  1.00  0.00    +0.020 A 
ATOM      6  C   UNL     1      40.549  67.385  54.464  1.00  0.00    +0.037 A 
ATOM      7  S   UNL     1      40.564  68.020  52.871  1.00  0.00    -0.117 S 
ATOM      8  C   UNL     1      38.879  68.000  52.751  1.00  0.00    +0.110 A 
ATOM      9  C   UNL     1      38.282  67.393  53.843  1.00  0.00    +0.082 A 
ENDROOT
BRANCH   9  10
ATOM     10  C   UNL     1      36.838  67.164  53.896  1.00  0.00    +0.257 C 
ATOM     11  N   UNL     1      36.386  65.845  54.005  1.00  0.00    -0.338 N 
ATOM     12  O   UNL     1      36.058  68.109  53.779  1.00  0.00    -0.269 OA
ATOM     13  C   UNL     1      37.173  64.686  53.582  1.00  0.00    +0.121 C 
ATOM     14  C   UNL     1      34.963  65.606  54.156  1.00  0.00    +0.121 C 
ATOM     15  C   UNL     1      36.318  63.603  52.910  1.00  0.00    +0.041 C 
ATOM     16  C   UNL     1      34.340  65.173  52.833  1.00  0.00    +0.041 C 
ATOM     17  C   UNL     1      35.252  64.237  51.991  1.00  0.00    +0.060 C 
BRANCH  17  18
ATOM     18  N   UNL     1      34.424  63.256  51.235  1.00  0.00    -0.299 NA
ATOM     19  C   UNL     1      33.083  63.796  50.941  1.00  0.00    +0.085 C 
ATOM     20  C   UNL     1      35.056  62.825  49.966  1.00  0.00    +0.103 C 
ATOM     21  C   UNL     1      32.145  62.689  50.460  1.00  0.00    +0.017 C 
ATOM     22  C   UNL     1      34.145  61.999  49.024  1.00  0.00    +0.084 C 
ATOM     23  C   UNL     1      32.848  61.559  49.711  1.00  0.00    +0.021 C 
ATOM     24  C   UNL     1      33.867  62.796  47.763  1.00  0.00    +0.314 C 
ATOM     25  C   UNL     1      34.860  60.777  48.431  1.00  0.00    +0.068 C 
ATOM     26  O   UNL     1      33.089  63.731  47.664  1.00  0.00    -0.252 OA
ATOM     27  O   UNL     1      34.633  62.353  46.723  1.00  0.00    -0.459 OA
ATOM     28  C   UNL     1      35.481  61.276  47.136  1.00  0.00    +0.108 C 
ATOM     29  C   UNL     1      36.908  61.803  47.306  1.00  0.00    +0.056 C 
ATOM     30  C   UNL     1      35.455  60.200  46.051  1.00  0.00    +0.056 C 
ENDBRANCH  17  18
ENDBRANCH   9  10
BRANCH   8  31
ATOM     31  N   UNL     1      38.215  68.515  51.646  1.00  0.00    -0.299 N 
ATOM     32  C   UNL     1      38.664  68.565  50.343  1.00  0.00    +0.319 C 
ATOM     33  O   UNL     1      39.733  68.166  49.903  1.00  0.00    -0.248 OA
ATOM     34  N   UNL     1      37.712  69.158  49.529  1.00  0.00    -0.338 N 
ATOM     35  H   UNL     1      37.399  69.077  51.861  1.00  0.00    +0.172 HD
ATOM     36  H   UNL     1      36.758  69.146  49.856  1.00  0.00    +0.165 HD
BRANCH  34  37
ATOM     37  C   UNL     1      37.919  69.273  48.100  1.00  0.00    +0.114 C 
ATOM     38  C   UNL     1      38.373  70.665  47.702  1.00  0.00    +0.027 C 
ENDBRANCH  34  37
ENDBRANCH   8  31
TORSDOF 4
ENDMDL
MODEL 8
REMARK VINA RESULT:    -8.752      2.871      9.144
REMARK INTER + INTRA:         -11.988
REMARK INTER:                 -10.677
REMARK INTRA:                  -1.310
REMARK UNBOUND:                -1.189
REMARK SMILES CCNC(=O)Nc1sc2ccccc2c1C(=O)N1CCC(N2CCC[C@@]3(C2)CC(C)(C)OC3=O)CC1
REMARK SMILES IDX 14 1 13 2 12 3 11 4 10 5 9 6 8 7 7 8 15 9 16 10 18 11 17 12
REMARK SMILES IDX 19 13 36 14 20 15 35 16 21 17 22 18 23 19 27 20 24 21 26 22
REMARK SMILES IDX 25 23 33 24 28 25 34 26 32 27 29 28 30 29 31 30 6 31 4 32
REMARK SMILES IDX 5 33 3 34 2 37 1 38
REMARK H PARENT 6 35 3 36
REMARK INDEX MAP 1 1 2 2 3 3 4 4 5 5 6 6 7 7 8 8 13 9 14 10 15 11 16 12 17 13
REMARK INDEX MAP 19 14 18 15 20 16 21 17 22 18 23 19 26 20 24 21 27 22 25 23
REMARK INDEX MAP 28 24 31 25 29 26 30 27 32 28 33 29 34 30 9 31 10 32 11 33
REMARK INDEX MAP 12 34 41 35 42 36 35 37 36 38
ROOT
ATOM      1  C   UNL     1      32.459  62.976  51.728  1.00  0.00    +0.007 A 
ATOM      2  C   UNL     1      32.254  63.202  53.115  1.00  0.00    +0.010 A 
ATOM      3  C   UNL     1      31.362  62.412  53.847  1.00  0.00    +0.001 A 
ATOM      4  C   UNL     1      30.666  61.386  53.226  1.00  0.00    +0.002 A 
ATOM      5  C   UNL     1      30.859  61.122  51.869  1.00  0.00    +0.020 A 
ATOM      6  C   UNL     1      31.765  61.916  51.138  1.00  0.00    +0.037 A 
ATOM      7  S   UNL     1      32.177  61.744  49.482  1.00  0.00    -0.117 S 
ATOM      8  C   UNL     1      33.308  62.999  49.541  1.00  0.00    +0.110 A 
ATOM      9  C   UNL     1      33.298  63.657  50.760  1.00  0.00    +0.082 A 
ENDROOT
BRANCH   9  10
ATOM     10  C   UNL     1      34.115  64.848  50.992  1.00  0.00    +0.257 C 
ATOM     11  N   UNL     1      35.481  64.669  51.235  1.00  0.00    -0.338 N 
ATOM     12  O   UNL     1      33.590  65.959  51.034  1.00  0.00    -0.269 OA
ATOM     13  C   UNL     1      36.051  63.426  51.756  1.00  0.00    +0.121 C 
ATOM     14  C   UNL     1      36.324  65.842  51.370  1.00  0.00    +0.121 C 
ATOM     15  C   UNL     1      37.178  63.671  52.770  1.00  0.00    +0.041 C 
ATOM     16  C   UNL     1      36.620  66.135  52.837  1.00  0.00    +0.041 C 
ATOM     17  C   UNL     1      36.835  64.857  53.697  1.00  0.00    +0.060 C 
BRANCH  17  18
ATOM     18  N   UNL     1      37.840  65.118  54.765  1.00  0.00    -0.299 NA
ATOM     19  C   UNL     1      37.354  66.122  55.729  1.00  0.00    +0.085 C 
ATOM     20  C   UNL     1      38.228  63.893  55.503  1.00  0.00    +0.103 C 
ATOM     21  C   UNL     1      38.492  66.617  56.621  1.00  0.00    +0.017 C 
ATOM     22  C   UNL     1      39.080  64.133  56.775  1.00  0.00    +0.084 C 
ATOM     23  C   UNL     1      39.583  65.577  56.872  1.00  0.00    +0.021 C 
ATOM     24  C   UNL     1      38.279  63.736  58.001  1.00  0.00    +0.314 C 
ATOM     25  C   UNL     1      40.263  63.162  56.886  1.00  0.00    +0.068 C 
ATOM     26  O   UNL     1      37.376  64.383  58.507  1.00  0.00    -0.252 OA
ATOM     27  O   UNL     1      38.676  62.519  58.475  1.00  0.00    -0.459 OA
ATOM     28  C   UNL     1      39.722  61.971  57.663  1.00  0.00    +0.108 C 
ATOM     29  C   UNL     1      39.138  60.874  56.771  1.00  0.00    +0.056 C 
ATOM     30  C   UNL     1      40.784  61.375  58.586  1.00  0.00    +0.056 C 
ENDBRANCH  17  18
ENDBRANCH   9  10
BRANCH   8  31
ATOM     31  N   UNL     1      34.107  63.319  48.453  1.00  0.00    -0.299 N 
ATOM     32  C   UNL     1      35.287  62.717  48.071  1.00  0.00    +0.319 C 
ATOM     33  O   UNL     1      35.862  61.784  48.612  1.00  0.00    -0.248 OA
ATOM     34  N   UNL     1      35.790  63.325  46.932  1.00  0.00    -0.338 N 
ATOM     35  H   UNL     1      33.893  64.205  48.010  1.00  0.00    +0.172 HD
ATOM     36  H   UNL     1      35.134  63.826  46.352  1.00  0.00    +0.165 HD
BRANCH  34  37
ATOM     37  C   UNL     1      36.994  62.833  46.292  1.00  0.00    +0.114 C 
ATOM     38  C   UNL     1      37.797  63.954  45.657  1.00  0.00    +0.027 C 
ENDBRANCH  34  37
ENDBRANCH   8  31
TORSDOF 4
ENDMDL
MODEL 9
REMARK VINA RESULT:    -8.748      2.952      9.074
REMARK INTER + INTRA:         -11.983
REMARK INTER:                 -11.084
REMARK INTRA:                  -0.898
REMARK UNBOUND:                -1.189
REMARK SMILES CCNC(=O)Nc1sc2ccccc2c1C(=O)N1CCC(N2CCC[C@@]3(C2)CC(C)(C)OC3=O)CC1
REMARK SMILES IDX 14 1 13 2 12 3 11 4 10 5 9 6 8 7 7 8 15 9 16 10 18 11 17 12
REMARK SMILES IDX 19 13 36 14 20 15 35 16 21 17 22 18 23 19 27 20 24 21 26 22
REMARK SMILES IDX 25 23 33 24 28 25 34 26 32 27 29 28 30 29 31 30 6 31 4 32
REMARK SMILES IDX 5 33 3 34 2 37 1 38
REMARK H PARENT 6 35 3 36
REMARK INDEX MAP 1 1 2 2 3 3 4 4 5 5 6 6 7 7 8 8 13 9 14 10 15 11 16 12 17 13
REMARK INDEX MAP 19 14 18 15 20 16 21 17 22 18 23 19 26 20 24 21 27 22 25 23
REMARK INDEX MAP 28 24 31 25 29 26 30 27 32 28 33 29 34 30 9 31 10 32 11 33
REMARK INDEX MAP 12 34 41 35 42 36 35 37 36 38
ROOT
ATOM      1  C   UNL     1      34.564  62.599  48.756  1.00  0.00    +0.007 A 
ATOM      2  C   UNL     1      35.474  63.202  47.848  1.00  0.00    +0.010 A 
ATOM      3  C   UNL     1      35.997  62.482  46.769  1.00  0.00    +0.001 A 
ATOM      4  C   UNL     1      35.625  61.162  46.565  1.00  0.00    +0.002 A 
ATOM      5  C   UNL     1      34.717  60.543  47.426  1.00  0.00    +0.020 A 
ATOM      6  C   UNL     1      34.188  61.277  48.507  1.00  0.00    +0.037 A 
ATOM      7  S   UNL     1      33.040  60.727  49.657  1.00  0.00    -0.117 S 
ATOM      8  C   UNL     1      32.976  62.223  50.441  1.00  0.00    +0.110 A 
ATOM      9  C   UNL     1      33.910  63.116  49.943  1.00  0.00    +0.082 A 
ENDROOT
BRANCH   9  10
ATOM     10  C   UNL     1      34.108  64.432  50.551  1.00  0.00    +0.257 C 
ATOM     11  N   UNL     1      35.337  64.693  51.166  1.00  0.00    -0.338 N 
ATOM     12  O   UNL     1      33.188  65.249  50.569  1.00  0.00    -0.269 OA
ATOM     13  C   UNL     1      36.220  63.644  51.678  1.00  0.00    +0.121 C 
ATOM     14  C   UNL     1      35.587  66.023  51.688  1.00  0.00    +0.121 C 
ATOM     15  C   UNL     1      36.892  64.031  53.003  1.00  0.00    +0.041 C 
ATOM     16  C   UNL     1      35.397  66.060  53.201  1.00  0.00    +0.041 C 
ATOM     17  C   UNL     1      35.902  64.778  53.923  1.00  0.00    +0.060 C 
BRANCH  17  18
ATOM     18  N   UNL     1      36.447  65.125  55.266  1.00  0.00    -0.299 NA
ATOM     19  C   UNL     1      36.346  63.988  56.198  1.00  0.00    +0.085 C 
ATOM     20  C   UNL     1      37.857  65.580  55.215  1.00  0.00    +0.103 C 
ATOM     21  C   UNL     1      36.603  64.439  57.636  1.00  0.00    +0.017 C 
ATOM     22  C   UNL     1      38.552  65.723  56.592  1.00  0.00    +0.084 C 
ATOM     23  C   UNL     1      37.560  65.624  57.755  1.00  0.00    +0.021 C 
ATOM     24  C   UNL     1      39.657  64.690  56.709  1.00  0.00    +0.314 C 
ATOM     25  C   UNL     1      39.366  67.018  56.712  1.00  0.00    +0.068 C 
ATOM     26  O   UNL     1      39.504  63.499  56.931  1.00  0.00    -0.252 OA
ATOM     27  O   UNL     1      40.883  65.255  56.503  1.00  0.00    -0.459 OA
ATOM     28  C   UNL     1      40.759  66.653  56.222  1.00  0.00    +0.108 C 
ATOM     29  C   UNL     1      40.958  66.881  54.722  1.00  0.00    +0.056 C 
ATOM     30  C   UNL     1      41.841  67.398  57.004  1.00  0.00    +0.056 C 
ENDBRANCH  17  18
ENDBRANCH   9  10
BRANCH   8  31
ATOM     31  N   UNL     1      32.094  62.469  51.483  1.00  0.00    -0.299 N 
ATOM     32  C   UNL     1      31.023  61.696  51.879  1.00  0.00    +0.319 C 
ATOM     33  O   UNL     1      30.639  60.642  51.392  1.00  0.00    -0.248 OA
ATOM     34  N   UNL     1      30.381  62.279  52.959  1.00  0.00    -0.338 N 
ATOM     35  H   UNL     1      32.135  63.406  51.867  1.00  0.00    +0.172 HD
ATOM     36  H   UNL     1      30.919  62.925  53.517  1.00  0.00    +0.165 HD
BRANCH  34  37
ATOM     37  C   UNL     1      29.259  61.628  53.603  1.00  0.00    +0.114 C 
ATOM     38  C   UNL     1      29.687  60.838  54.827  1.00  0.00    +0.027 C 
ENDBRANCH  34  37
ENDBRANCH   8  31
TORSDOF 4
ENDMDL
MODEL 10
REMARK VINA RESULT:    -8.580      2.956      9.346
REMARK INTER + INTRA:         -11.775
REMARK INTER:                 -10.850
REMARK INTRA:                  -0.925
REMARK UNBOUND:                -1.189
REMARK SMILES CCNC(=O)Nc1sc2ccccc2c1C(=O)N1CCC(N2CCC[C@@]3(C2)CC(C)(C)OC3=O)CC1
REMARK SMILES IDX 14 1 13 2 12 3 11 4 10 5 9 6 8 7 7 8 15 9 16 10 18 11 17 12
REMARK SMILES IDX 19 13 36 14 20 15 35 16 21 17 22 18 23 19 27 20 24 21 26 22
REMARK SMILES IDX 25 23 33 24 28 25 34 26 32 27 29 28 30 29 31 30 6 31 4 32
REMARK SMILES IDX 5 33 3 34 2 37 1 38
REMARK H PARENT 6 35 3 36
REMARK INDEX MAP 1 1 2 2 3 3 4 4 5 5 6 6 7 7 8 8 13 9 14 10 15 11 16 12 17 13
REMARK INDEX MAP 19 14 18 15 20 16 21 17 22 18 23 19 26 20 24 21 27 22 25 23
REMARK INDEX MAP 28 24 31 25 29 26 30 27 32 28 33 29 34 30 9 31 10 32 11 33
REMARK INDEX MAP 12 34 41 35 42 36 35 37 36 38
ROOT
ATOM      1  C   UNL     1      31.896  61.881  50.735  1.00  0.00    +0.007 A 
ATOM      2  C   UNL     1      31.046  62.525  51.674  1.00  0.00    +0.010 A 
ATOM      3  C   UNL     1      29.845  61.934  52.078  1.00  0.00    +0.001 A 
ATOM      4  C   UNL     1      29.468  60.699  51.572  1.00  0.00    +0.002 A 
ATOM      5  C   UNL     1      30.289  60.029  50.663  1.00  0.00    +0.020 A 
ATOM      6  C   UNL     1      31.502  60.626  50.265  1.00  0.00    +0.037 A 
ATOM      7  S   UNL     1      32.669  59.966  49.195  1.00  0.00    -0.117 S 
ATOM      8  C   UNL     1      33.720  61.275  49.391  1.00  0.00    +0.110 A 
ATOM      9  C   UNL     1      33.159  62.288  50.150  1.00  0.00    +0.082 A 
ENDROOT
BRANCH   9  10
ATOM     10  C   UNL     1      33.848  63.563  50.350  1.00  0.00    +0.257 C 
ATOM     11  N   UNL     1      35.051  63.554  51.065  1.00  0.00    -0.338 N 
ATOM     12  O   UNL     1      33.338  64.611  49.954  1.00  0.00    -0.269 OA
ATOM     13  C   UNL     1      35.411  62.507  52.022  1.00  0.00    +0.121 C 
ATOM     14  C   UNL     1      35.797  64.791  51.189  1.00  0.00    +0.121 C 
ATOM     15  C   UNL     1      36.127  63.060  53.262  1.00  0.00    +0.041 C 
ATOM     16  C   UNL     1      35.577  65.424  52.560  1.00  0.00    +0.041 C 
ATOM     17  C   UNL     1      35.489  64.390  53.717  1.00  0.00    +0.060 C 
BRANCH  17  18
ATOM     18  N   UNL     1      36.073  64.962  54.963  1.00  0.00    -0.299 NA
ATOM     19  C   UNL     1      36.184  63.942  56.023  1.00  0.00    +0.085 C 
ATOM     20  C   UNL     1      37.404  65.575  54.747  1.00  0.00    +0.103 C 
ATOM     21  C   UNL     1      36.475  64.592  57.375  1.00  0.00    +0.017 C 
ATOM     22  C   UNL     1      38.166  65.968  56.038  1.00  0.00    +0.084 C 
ATOM     23  C   UNL     1      37.275  65.890  57.282  1.00  0.00    +0.021 C 
ATOM     24  C   UNL     1      39.401  65.099  56.179  1.00  0.00    +0.314 C 
ATOM     25  C   UNL     1      38.810  67.357  55.945  1.00  0.00    +0.068 C 
ATOM     26  O   UNL     1      39.420  63.934  56.545  1.00  0.00    -0.252 OA
ATOM     27  O   UNL     1      40.526  65.779  55.811  1.00  0.00    -0.459 OA
ATOM     28  C   UNL     1      40.203  67.108  55.387  1.00  0.00    +0.108 C 
ATOM     29  C   UNL     1      40.270  67.174  53.860  1.00  0.00    +0.056 C 
ATOM     30  C   UNL     1      41.228  68.068  55.989  1.00  0.00    +0.056 C 
ENDBRANCH  17  18
ENDBRANCH   9  10
BRANCH   8  31
ATOM     31  N   UNL     1      34.979  61.299  48.809  1.00  0.00    -0.299 N 
ATOM     32  C   UNL     1      35.283  61.331  47.464  1.00  0.00    +0.319 C 
ATOM     33  O   UNL     1      34.506  61.343  46.520  1.00  0.00    -0.248 OA
ATOM     34  N   UNL     1      36.657  61.344  47.282  1.00  0.00    -0.338 N 
ATOM     35  H   UNL     1      35.745  61.083  49.436  1.00  0.00    +0.172 HD
ATOM     36  H   UNL     1      37.218  61.675  48.052  1.00  0.00    +0.165 HD
BRANCH  34  37
ATOM     37  C   UNL     1      37.233  61.440  45.957  1.00  0.00    +0.114 C 
ATOM     38  C   UNL     1      37.652  60.083  45.420  1.00  0.00    +0.027 C 
ENDBRANCH  34  37
ENDBRANCH   8  31
TORSDOF 4
ENDMDL
MODEL 11
REMARK VINA RESULT:    -8.516      1.808      2.022
REMARK INTER + INTRA:         -11.696
REMARK INTER:                 -10.564
REMARK INTRA:                  -1.132
REMARK UNBOUND:                -1.189
REMARK SMILES CCNC(=O)Nc1sc2ccccc2c1C(=O)N1CCC(N2CCC[C@@]3(C2)CC(C)(C)OC3=O)CC1
REMARK SMILES IDX 14 1 13 2 12 3 11 4 10 5 9 6 8 7 7 8 15 9 16 10 18 11 17 12
REMARK SMILES IDX 19 13 36 14 20 15 35 16 21 17 22 18 23 19 27 20 24 21 26 22
REMARK SMILES IDX 25 23 33 24 28 25 34 26 32 27 29 28 30 29 31 30 6 31 4 32
REMARK SMILES IDX 5 33 3 34 2 37 1 38
REMARK H PARENT 6 35 3 36
REMARK INDEX MAP 1 1 2 2 3 3 4 4 5 5 6 6 7 7 8 8 13 9 14 10 15 11 16 12 17 13
REMARK INDEX MAP 19 14 18 15 20 16 21 17 22 18 23 19 26 20 24 21 27 22 25 23
REMARK INDEX MAP 28 24 31 25 29 26 30 27 32 28 33 29 34 30 9 31 10 32 11 33
REMARK INDEX MAP 12 34 41 35 42 36 35 37 36 38
ROOT
ATOM      1  C   UNL     1      38.981  67.361  54.637  1.00  0.00    +0.007 A 
ATOM      2  C   UNL     1      37.973  67.614  53.668  1.00  0.00    +0.010 A 
ATOM      3  C   UNL     1      38.147  68.598  52.691  1.00  0.00    +0.001 A 
ATOM      4  C   UNL     1      39.316  69.341  52.648  1.00  0.00    +0.002 A 
ATOM      5  C   UNL     1      40.336  69.107  53.571  1.00  0.00    +0.020 A 
ATOM      6  C   UNL     1      40.158  68.108  54.550  1.00  0.00    +0.037 A 
ATOM      7  S   UNL     1      41.289  67.633  55.750  1.00  0.00    -0.117 S 
ATOM      8  C   UNL     1      40.282  66.412  56.342  1.00  0.00    +0.110 A 
ATOM      9  C   UNL     1      39.032  66.428  55.746  1.00  0.00    +0.082 A 
ENDROOT
BRANCH   9  10
ATOM     10  C   UNL     1      37.963  65.532  56.188  1.00  0.00    +0.257 C 
ATOM     11  N   UNL     1      37.729  64.371  55.444  1.00  0.00    -0.338 N 
ATOM     12  O   UNL     1      37.257  65.839  57.148  1.00  0.00    -0.269 OA
ATOM     13  C   UNL     1      38.103  64.228  54.036  1.00  0.00    +0.121 C 
ATOM     14  C   UNL     1      36.741  63.423  55.922  1.00  0.00    +0.121 C 
ATOM     15  C   UNL     1      37.052  63.462  53.220  1.00  0.00    +0.041 C 
ATOM     16  C   UNL     1      35.431  63.569  55.155  1.00  0.00    +0.041 C 
ATOM     17  C   UNL     1      35.625  63.870  53.642  1.00  0.00    +0.060 C 
BRANCH  17  18
ATOM     18  N   UNL     1      34.538  63.232  52.847  1.00  0.00    -0.299 NA
ATOM     19  C   UNL     1      33.262  63.955  53.001  1.00  0.00    +0.085 C 
ATOM     20  C   UNL     1      34.863  63.134  51.404  1.00  0.00    +0.103 C 
ATOM     21  C   UNL     1      32.099  63.128  52.453  1.00  0.00    +0.017 C 
ATOM     22  C   UNL     1      33.685  62.705  50.492  1.00  0.00    +0.084 C 
ATOM     23  C   UNL     1      32.482  62.205  51.298  1.00  0.00    +0.021 C 
ATOM     24  C   UNL     1      33.308  63.857  49.580  1.00  0.00    +0.314 C 
ATOM     25  C   UNL     1      34.093  61.650  49.456  1.00  0.00    +0.068 C 
ATOM     26  O   UNL     1      32.672  64.848  49.902  1.00  0.00    -0.252 OA
ATOM     27  O   UNL     1      33.800  63.669  48.320  1.00  0.00    -0.459 OA
ATOM     28  C   UNL     1      34.540  62.445  48.239  1.00  0.00    +0.108 C 
ATOM     29  C   UNL     1      36.036  62.766  48.235  1.00  0.00    +0.056 C 
ATOM     30  C   UNL     1      34.161  61.739  46.938  1.00  0.00    +0.056 C 
ENDBRANCH  17  18
ENDBRANCH   9  10
BRANCH   8  31
ATOM     31  N   UNL     1      40.693  65.540  57.340  1.00  0.00    -0.299 N 
ATOM     32  C   UNL     1      40.619  65.727  58.704  1.00  0.00    +0.319 C 
ATOM     33  O   UNL     1      40.177  66.696  59.305  1.00  0.00    -0.248 OA
ATOM     34  N   UNL     1      41.138  64.628  59.369  1.00  0.00    -0.338 N 
ATOM     35  H   UNL     1      41.276  64.773  57.024  1.00  0.00    +0.172 HD
ATOM     36  H   UNL     1      41.160  63.755  58.864  1.00  0.00    +0.165 HD
BRANCH  34  37
ATOM     37  C   UNL     1      41.117  64.552  60.815  1.00  0.00    +0.114 C 
ATOM     38  C   UNL     1      40.429  63.292  61.308  1.00  0.00    +0.027 C 
ENDBRANCH  34  37
ENDBRANCH   8  31
TORSDOF 4
ENDMDL
MODEL 12
REMARK VINA RESULT:    -8.501      3.600      8.940
REMARK INTER + INTRA:         -11.678
REMARK INTER:                 -10.231
REMARK INTRA:                  -1.446
REMARK UNBOUND:                -1.189
REMARK SMILES CCNC(=O)Nc1sc2ccccc2c1C(=O)N1CCC(N2CCC[C@@]3(C2)CC(C)(C)OC3=O)CC1
REMARK SMILES IDX 14 1 13 2 12 3 11 4 10 5 9 6 8 7 7 8 15 9 16 10 18 11 17 12
REMARK SMILES IDX 19 13 36 14 20 15 35 16 21 17 22 18 23 19 27 20 24 21 26 22
REMARK SMILES IDX 25 23 33 24 28 25 34 26 32 27 29 28 30 29 31 30 6 31 4 32
REMARK SMILES IDX 5 33 3 34 2 37 1 38
REMARK H PARENT 6 35 3 36
REMARK INDEX MAP 1 1 2 2 3 3 4 4 5 5 6 6 7 7 8 8 13 9 14 10 15 11 16 12 17 13
REMARK INDEX MAP 19 14 18 15 20 16 21 17 22 18 23 19 26 20 24 21 27 22 25 23
REMARK INDEX MAP 28 24 31 25 29 26 30 27 32 28 33 29 34 30 9 31 10 32 11 33
REMARK INDEX MAP 12 34 41 35 42 36 35 37 36 38
ROOT
ATOM      1  C   UNL     1      32.310  62.709  51.937  1.00  0.00    +0.007 A 
ATOM      2  C   UNL     1      31.993  62.236  53.239  1.00  0.00    +0.010 A 
ATOM      3  C   UNL     1      30.673  61.944  53.596  1.00  0.00    +0.001 A 
ATOM      4  C   UNL     1      29.648  62.107  52.676  1.00  0.00    +0.002 A 
ATOM      5  C   UNL     1      29.925  62.550  51.382  1.00  0.00    +0.020 A 
ATOM      6  C   UNL     1      31.258  62.835  51.026  1.00  0.00    +0.037 A 
ATOM      7  S   UNL     1      31.823  63.354  49.491  1.00  0.00    -0.117 S 
ATOM      8  C   UNL     1      33.439  63.350  49.984  1.00  0.00    +0.110 A 
ATOM      9  C   UNL     1      33.573  63.095  51.339  1.00  0.00    +0.082 A 
ENDROOT
BRANCH   9  10
ATOM     10  C   UNL     1      34.875  63.158  52.003  1.00  0.00    +0.257 C 
ATOM     11  N   UNL     1      35.065  64.135  52.985  1.00  0.00    -0.338 N 
ATOM     12  O   UNL     1      35.786  62.410  51.649  1.00  0.00    -0.269 OA
ATOM     13  C   UNL     1      34.284  65.371  53.054  1.00  0.00    +0.121 C 
ATOM     14  C   UNL     1      36.314  64.150  53.722  1.00  0.00    +0.121 C 
ATOM     15  C   UNL     1      35.133  66.586  53.455  1.00  0.00    +0.041 C 
ATOM     16  C   UNL     1      37.249  65.230  53.188  1.00  0.00    +0.041 C 
ATOM     17  C   UNL     1      36.517  66.538  52.772  1.00  0.00    +0.060 C 
BRANCH  17  18
ATOM     18  N   UNL     1      37.382  67.720  53.044  1.00  0.00    -0.299 NA
ATOM     19  C   UNL     1      38.600  67.338  53.782  1.00  0.00    +0.085 C 
ATOM     20  C   UNL     1      37.774  68.442  51.811  1.00  0.00    +0.103 C 
ATOM     21  C   UNL     1      39.313  68.574  54.331  1.00  0.00    +0.017 C 
ATOM     22  C   UNL     1      38.862  69.528  52.002  1.00  0.00    +0.084 C 
ATOM     23  C   UNL     1      39.127  69.829  53.481  1.00  0.00    +0.021 C 
ATOM     24  C   UNL     1      40.129  69.106  51.282  1.00  0.00    +0.314 C 
ATOM     25  C   UNL     1      38.537  70.830  51.257  1.00  0.00    +0.068 C 
ATOM     26  O   UNL     1      40.927  68.267  51.667  1.00  0.00    -0.252 OA
ATOM     27  O   UNL     1      40.268  69.773  50.098  1.00  0.00    -0.459 OA
ATOM     28  C   UNL     1      39.167  70.663  49.882  1.00  0.00    +0.108 C 
ATOM     29  C   UNL     1      38.223  70.047  48.849  1.00  0.00    +0.056 C 
ATOM     30  C   UNL     1      39.716  71.989  49.354  1.00  0.00    +0.056 C 
ENDBRANCH  17  18
ENDBRANCH   9  10
BRANCH   8  31
ATOM     31  N   UNL     1      34.477  63.614  49.102  1.00  0.00    -0.299 N 
ATOM     32  C   UNL     1      35.067  62.742  48.212  1.00  0.00    +0.319 C 
ATOM     33  O   UNL     1      34.792  61.566  48.022  1.00  0.00    -0.248 OA
ATOM     34  N   UNL     1      36.074  63.381  47.508  1.00  0.00    -0.338 N 
ATOM     35  H   UNL     1      34.969  64.485  49.269  1.00  0.00    +0.172 HD
ATOM     36  H   UNL     1      36.025  64.387  47.449  1.00  0.00    +0.165 HD
BRANCH  34  37
ATOM     37  C   UNL     1      36.807  62.695  46.463  1.00  0.00    +0.114 C 
ATOM     38  C   UNL     1      37.756  63.626  45.731  1.00  0.00    +0.027 C 
ENDBRANCH  34  37
ENDBRANCH   8  31
TORSDOF 4
ENDMDL
MODEL 13
REMARK VINA RESULT:    -8.140      3.171      5.975
REMARK INTER + INTRA:         -11.232
REMARK INTER:                  -9.914
REMARK INTRA:                  -1.318
REMARK UNBOUND:                -1.189
REMARK SMILES CCNC(=O)Nc1sc2ccccc2c1C(=O)N1CCC(N2CCC[C@@]3(C2)CC(C)(C)OC3=O)CC1
REMARK SMILES IDX 14 1 13 2 12 3 11 4 10 5 9 6 8 7 7 8 15 9 16 10 18 11 17 12
REMARK SMILES IDX 19 13 36 14 20 15 35 16 21 17 22 18 23 19 27 20 24 21 26 22
REMARK SMILES IDX 25 23 33 24 28 25 34 26 32 27 29 28 30 29 31 30 6 31 4 32
REMARK SMILES IDX 5 33 3 34 2 37 1 38
REMARK H PARENT 6 35 3 36
REMARK INDEX MAP 1 1 2 2 3 3 4 4 5 5 6 6 7 7 8 8 13 9 14 10 15 11 16 12 17 13
REMARK INDEX MAP 19 14 18 15 20 16 21 17 22 18 23 19 26 20 24 21 27 22 25 23
REMARK INDEX MAP 28 24 31 25 29 26 30 27 32 28 33 29 34 30 9 31 10 32 11 33
REMARK INDEX MAP 12 34 41 35 42 36 35 37 36 38
ROOT
ATOM      1  C   UNL     1      40.629  63.645  58.935  1.00  0.00    +0.007 A 
ATOM      2  C   UNL     1      40.077  62.534  58.244  1.00  0.00    +0.010 A 
ATOM      3  C   UNL     1      40.167  61.242  58.772  1.00  0.00    +0.001 A 
ATOM      4  C   UNL     1      40.794  61.027  59.989  1.00  0.00    +0.002 A 
ATOM      5  C   UNL     1      41.330  62.099  60.706  1.00  0.00    +0.020 A 
ATOM      6  C   UNL     1      41.230  63.399  60.172  1.00  0.00    +0.037 A 
ATOM      7  S   UNL     1      41.783  64.852  60.897  1.00  0.00    -0.117 S 
ATOM      8  C   UNL     1      41.186  65.812  59.641  1.00  0.00    +0.110 A 
ATOM      9  C   UNL     1      40.685  65.054  58.595  1.00  0.00    +0.082 A 
ENDROOT
BRANCH   9  10
ATOM     10  C   UNL     1      40.221  65.676  57.355  1.00  0.00    +0.257 C 
ATOM     11  N   UNL     1      38.873  66.040  57.267  1.00  0.00    -0.338 N 
ATOM     12  O   UNL     1      40.991  65.806  56.404  1.00  0.00    -0.269 OA
ATOM     13  C   UNL     1      37.819  65.425  58.074  1.00  0.00    +0.121 C 
ATOM     14  C   UNL     1      38.418  66.746  56.085  1.00  0.00    +0.121 C 
ATOM     15  C   UNL     1      36.519  65.210  57.284  1.00  0.00    +0.041 C 
ATOM     16  C   UNL     1      37.698  65.799  55.128  1.00  0.00    +0.041 C 
ATOM     17  C   UNL     1      36.822  64.734  55.847  1.00  0.00    +0.060 C 
BRANCH  17  18
ATOM     18  N   UNL     1      35.615  64.426  55.031  1.00  0.00    -0.299 NA
ATOM     19  C   UNL     1      34.805  65.634  54.788  1.00  0.00    +0.085 C 
ATOM     20  C   UNL     1      35.945  63.800  53.728  1.00  0.00    +0.103 C 
ATOM     21  C   UNL     1      33.428  65.265  54.237  1.00  0.00    +0.017 C 
ATOM     22  C   UNL     1      34.760  63.679  52.738  1.00  0.00    +0.084 C 
ATOM     23  C   UNL     1      33.414  63.985  53.403  1.00  0.00    +0.021 C 
ATOM     24  C   UNL     1      35.008  64.576  51.540  1.00  0.00    +0.314 C 
ATOM     25  C   UNL     1      34.700  62.307  52.052  1.00  0.00    +0.068 C 
ATOM     26  O   UNL     1      34.880  65.789  51.515  1.00  0.00    -0.252 OA
ATOM     27  O   UNL     1      35.435  63.852  50.463  1.00  0.00    -0.459 OA
ATOM     28  C   UNL     1      35.535  62.462  50.790  1.00  0.00    +0.108 C 
ATOM     29  C   UNL     1      37.009  62.100  50.985  1.00  0.00    +0.056 C 
ATOM     30  C   UNL     1      34.954  61.652  49.631  1.00  0.00    +0.056 C 
ENDBRANCH  17  18
ENDBRANCH   9  10
BRANCH   8  31
ATOM     31  N   UNL     1      41.245  67.197  59.682  1.00  0.00    -0.299 N 
ATOM     32  C   UNL     1      42.264  68.009  59.231  1.00  0.00    +0.319 C 
ATOM     33  O   UNL     1      43.315  67.671  58.706  1.00  0.00    -0.248 OA
ATOM     34  N   UNL     1      41.952  69.341  59.454  1.00  0.00    -0.338 N 
ATOM     35  H   UNL     1      40.550  67.638  60.275  1.00  0.00    +0.172 HD
ATOM     36  H   UNL     1      40.976  69.572  59.558  1.00  0.00    +0.165 HD
BRANCH  34  37
ATOM     37  C   UNL     1      42.837  70.399  59.012  1.00  0.00    +0.114 C 
ATOM     38  C   UNL     1      42.452  70.925  57.641  1.00  0.00    +0.027 C 
ENDBRANCH  34  37
ENDBRANCH   8  31
TORSDOF 4
ENDMDL
MODEL 14
REMARK VINA RESULT:    -7.662      4.103      6.937
REMARK INTER + INTRA:         -10.643
REMARK INTER:                  -9.173
REMARK INTRA:                  -1.470
REMARK UNBOUND:                -1.189
REMARK SMILES CCNC(=O)Nc1sc2ccccc2c1C(=O)N1CCC(N2CCC[C@@]3(C2)CC(C)(C)OC3=O)CC1
REMARK SMILES IDX 14 1 13 2 12 3 11 4 10 5 9 6 8 7 7 8 15 9 16 10 18 11 17 12
REMARK SMILES IDX 19 13 36 14 20 15 35 16 21 17 22 18 23 19 27 20 24 21 26 22
REMARK SMILES IDX 25 23 33 24 28 25 34 26 32 27 29 28 30 29 31 30 6 31 4 32
REMARK SMILES IDX 5 33 3 34 2 37 1 38
REMARK H PARENT 6 35 3 36
REMARK INDEX MAP 1 1 2 2 3 3 4 4 5 5 6 6 7 7 8 8 13 9 14 10 15 11 16 12 17 13
REMARK INDEX MAP 19 14 18 15 20 16 21 17 22 18 23 19 26 20 24 21 27 22 25 23
REMARK INDEX MAP 28 24 31 25 29 26 30 27 32 28 33 29 34 30 9 31 10 32 11 33
REMARK INDEX MAP 12 34 41 35 42 36 35 37 36 38
ROOT
ATOM      1  C   UNL     1      42.016  70.520  53.605  1.00  0.00    +0.007 A 
ATOM      2  C   UNL     1      41.588  71.496  54.543  1.00  0.00    +0.010 A 
ATOM      3  C   UNL     1      42.515  72.234  55.286  1.00  0.00    +0.001 A 
ATOM      4  C   UNL     1      43.874  72.026  55.112  1.00  0.00    +0.002 A 
ATOM      5  C   UNL     1      44.332  71.089  54.183  1.00  0.00    +0.020 A 
ATOM      6  C   UNL     1      43.393  70.354  53.432  1.00  0.00    +0.037 A 
ATOM      7  S   UNL     1      43.733  69.187  52.221  1.00  0.00    -0.117 S 
ATOM      8  C   UNL     1      42.098  68.943  51.870  1.00  0.00    +0.110 A 
ATOM      9  C   UNL     1      41.267  69.626  52.743  1.00  0.00    +0.082 A 
ENDROOT
BRANCH   9  10
ATOM     10  C   UNL     1      39.814  69.467  52.695  1.00  0.00    +0.257 C 
ATOM     11  N   UNL     1      39.180  68.884  53.798  1.00  0.00    -0.338 N 
ATOM     12  O   UNL     1      39.191  69.780  51.681  1.00  0.00    -0.269 OA
ATOM     13  C   UNL     1      39.861  67.997  54.742  1.00  0.00    +0.121 C 
ATOM     14  C   UNL     1      37.732  68.807  53.810  1.00  0.00    +0.121 C 
ATOM     15  C   UNL     1      38.978  66.826  55.196  1.00  0.00    +0.041 C 
ATOM     16  C   UNL     1      37.257  67.406  53.439  1.00  0.00    +0.041 C 
ATOM     17  C   UNL     1      38.152  66.272  54.016  1.00  0.00    +0.060 C 
BRANCH  17  18
ATOM     18  N   UNL     1      37.321  65.080  54.348  1.00  0.00    -0.299 NA
ATOM     19  C   UNL     1      36.866  65.115  55.749  1.00  0.00    +0.085 C 
ATOM     20  C   UNL     1      36.141  64.937  53.463  1.00  0.00    +0.103 C 
ATOM     21  C   UNL     1      36.297  63.760  56.171  1.00  0.00    +0.017 C 
ATOM     22  C   UNL     1      35.113  63.865  53.906  1.00  0.00    +0.084 C 
ATOM     23  C   UNL     1      35.653  62.974  55.030  1.00  0.00    +0.021 C 
ATOM     24  C   UNL     1      33.816  64.544  54.305  1.00  0.00    +0.314 C 
ATOM     25  C   UNL     1      34.627  62.994  52.740  1.00  0.00    +0.068 C 
ATOM     26  O   UNL     1      33.612  65.143  55.348  1.00  0.00    -0.252 OA
ATOM     27  O   UNL     1      32.878  64.430  53.319  1.00  0.00    -0.459 OA
ATOM     28  C   UNL     1      33.404  63.716  52.194  1.00  0.00    +0.108 C 
ATOM     29  C   UNL     1      33.729  64.711  51.079  1.00  0.00    +0.056 C 
ATOM     30  C   UNL     1      32.341  62.729  51.711  1.00  0.00    +0.056 C 
ENDBRANCH  17  18
ENDBRANCH   9  10
BRANCH   8  31
ATOM     31  N   UNL     1      41.685  68.115  50.837  1.00  0.00    -0.299 N 
ATOM     32  C   UNL     1      41.593  68.424  49.497  1.00  0.00    +0.319 C 
ATOM     33  O   UNL     1      41.858  69.487  48.953  1.00  0.00    -0.248 OA
ATOM     34  N   UNL     1      41.134  67.331  48.780  1.00  0.00    -0.338 N 
ATOM     35  H   UNL     1      41.228  67.259  51.131  1.00  0.00    +0.172 HD
ATOM     36  H   UNL     1      41.264  66.422  49.199  1.00  0.00    +0.165 HD
BRANCH  34  37
ATOM     37  C   UNL     1      41.010  67.380  47.338  1.00  0.00    +0.114 C 
ATOM     38  C   UNL     1      40.658  66.025  46.751  1.00  0.00    +0.027 C 
ENDBRANCH  34  37
ENDBRANCH   8  31
TORSDOF 4
ENDMDL
MODEL 15
REMARK VINA RESULT:    -7.609      3.771      9.257
REMARK INTER + INTRA:         -10.577
REMARK INTER:                  -9.422
REMARK INTRA:                  -1.154
REMARK UNBOUND:                -1.189
REMARK SMILES CCNC(=O)Nc1sc2ccccc2c1C(=O)N1CCC(N2CCC[C@@]3(C2)CC(C)(C)OC3=O)CC1
REMARK SMILES IDX 14 1 13 2 12 3 11 4 10 5 9 6 8 7 7 8 15 9 16 10 18 11 17 12
REMARK SMILES IDX 19 13 36 14 20 15 35 16 21 17 22 18 23 19 27 20 24 21 26 22
REMARK SMILES IDX 25 23 33 24 28 25 34 26 32 27 29 28 30 29 31 30 6 31 4 32
REMARK SMILES IDX 5 33 3 34 2 37 1 38
REMARK H PARENT 6 35 3 36
REMARK INDEX MAP 1 1 2 2 3 3 4 4 5 5 6 6 7 7 8 8 13 9 14 10 15 11 16 12 17 13
REMARK INDEX MAP 19 14 18 15 20 16 21 17 22 18 23 19 26 20 24 21 27 22 25 23
REMARK INDEX MAP 28 24 31 25 29 26 30 27 32 28 33 29 34 30 9 31 10 32 11 33
REMARK INDEX MAP 12 34 41 35 42 36 35 37 36 38
ROOT
ATOM      1  C   UNL     1      32.222  62.805  51.855  1.00  0.00    +0.007 A 
ATOM      2  C   UNL     1      31.794  62.404  53.149  1.00  0.00    +0.010 A 
ATOM      3  C   UNL     1      30.451  62.110  53.402  1.00  0.00    +0.001 A 
ATOM      4  C   UNL     1      29.512  62.200  52.386  1.00  0.00    +0.002 A 
ATOM      5  C   UNL     1      29.900  62.571  51.097  1.00  0.00    +0.020 A 
ATOM      6  C   UNL     1      31.257  62.859  50.846  1.00  0.00    +0.037 A 
ATOM      7  S   UNL     1      31.953  63.296  49.340  1.00  0.00    -0.117 S 
ATOM      8  C   UNL     1      33.517  63.351  49.977  1.00  0.00    +0.110 A 
ATOM      9  C   UNL     1      33.530  63.178  51.352  1.00  0.00    +0.082 A 
ENDROOT
BRANCH   9  10
ATOM     10  C   UNL     1      34.765  63.303  52.126  1.00  0.00    +0.257 C 
ATOM     11  N   UNL     1      35.107  64.567  52.617  1.00  0.00    -0.338 N 
ATOM     12  O   UNL     1      35.502  62.329  52.274  1.00  0.00    -0.269 OA
ATOM     13  C   UNL     1      34.626  65.817  52.028  1.00  0.00    +0.121 C 
ATOM     14  C   UNL     1      36.275  64.692  53.467  1.00  0.00    +0.121 C 
ATOM     15  C   UNL     1      35.701  66.913  52.005  1.00  0.00    +0.041 C 
ATOM     16  C   UNL     1      37.465  65.235  52.683  1.00  0.00    +0.041 C 
ATOM     17  C   UNL     1      37.080  66.322  51.640  1.00  0.00    +0.060 C 
BRANCH  17  18
ATOM     18  N   UNL     1      38.171  67.329  51.519  1.00  0.00    -0.299 NA
ATOM     19  C   UNL     1      38.425  67.682  50.110  1.00  0.00    +0.085 C 
ATOM     20  C   UNL     1      37.898  68.569  52.282  1.00  0.00    +0.103 C 
ATOM     21  C   UNL     1      39.736  68.455  49.970  1.00  0.00    +0.017 C 
ATOM     22  C   UNL     1      38.873  69.741  52.004  1.00  0.00    +0.084 C 
ATOM     23  C   UNL     1      40.094  69.299  51.192  1.00  0.00    +0.021 C 
ATOM     24  C   UNL     1      38.124  70.869  51.320  1.00  0.00    +0.314 C 
ATOM     25  C   UNL     1      39.330  70.448  53.288  1.00  0.00    +0.068 C 
ATOM     26  O   UNL     1      37.787  70.897  50.147  1.00  0.00    -0.252 OA
ATOM     27  O   UNL     1      37.834  71.873  52.199  1.00  0.00    -0.459 OA
ATOM     28  C   UNL     1      38.311  71.554  53.511  1.00  0.00    +0.108 C 
ATOM     29  C   UNL     1      37.128  71.128  54.382  1.00  0.00    +0.056 C 
ATOM     30  C   UNL     1      38.962  72.804  54.103  1.00  0.00    +0.056 C 
ENDBRANCH  17  18
ENDBRANCH   9  10
BRANCH   8  31
ATOM     31  N   UNL     1      34.628  63.581  49.179  1.00  0.00    -0.299 N 
ATOM     32  C   UNL     1      35.078  62.817  48.123  1.00  0.00    +0.319 C 
ATOM     33  O   UNL     1      34.588  61.787  47.681  1.00  0.00    -0.248 OA
ATOM     34  N   UNL     1      36.223  63.374  47.579  1.00  0.00    -0.338 N 
ATOM     35  H   UNL     1      35.272  64.279  49.532  1.00  0.00    +0.172 HD
ATOM     36  H   UNL     1      36.375  64.358  47.740  1.00  0.00    +0.165 HD
BRANCH  34  37
ATOM     37  C   UNL     1      36.857  62.792  46.414  1.00  0.00    +0.114 C 
ATOM     38  C   UNL     1      37.736  63.792  45.686  1.00  0.00    +0.027 C 
ENDBRANCH  34  37
ENDBRANCH   8  31
TORSDOF 4
ENDMDL
MODEL 16
REMARK VINA RESULT:    -7.524      2.783      9.369
REMARK INTER + INTRA:         -10.472
REMARK INTER:                  -9.433
REMARK INTRA:                  -1.039
REMARK UNBOUND:                -1.189
REMARK SMILES CCNC(=O)Nc1sc2ccccc2c1C(=O)N1CCC(N2CCC[C@@]3(C2)CC(C)(C)OC3=O)CC1
REMARK SMILES IDX 14 1 13 2 12 3 11 4 10 5 9 6 8 7 7 8 15 9 16 10 18 11 17 12
REMARK SMILES IDX 19 13 36 14 20 15 35 16 21 17 22 18 23 19 27 20 24 21 26 22
REMARK SMILES IDX 25 23 33 24 28 25 34 26 32 27 29 28 30 29 31 30 6 31 4 32
REMARK SMILES IDX 5 33 3 34 2 37 1 38
REMARK H PARENT 6 35 3 36
REMARK INDEX MAP 1 1 2 2 3 3 4 4 5 5 6 6 7 7 8 8 13 9 14 10 15 11 16 12 17 13
REMARK INDEX MAP 19 14 18 15 20 16 21 17 22 18 23 19 26 20 24 21 27 22 25 23
REMARK INDEX MAP 28 24 31 25 29 26 30 27 32 28 33 29 34 30 9 31 10 32 11 33
REMARK INDEX MAP 12 34 41 35 42 36 35 37 36 38
ROOT
ATOM      1  C   UNL     1      32.621  62.753  50.708  1.00  0.00    +0.007 A 
ATOM      2  C   UNL     1      31.991  62.319  51.904  1.00  0.00    +0.010 A 
ATOM      3  C   UNL     1      30.605  62.414  52.062  1.00  0.00    +0.001 A 
ATOM      4  C   UNL     1      29.820  62.930  51.043  1.00  0.00    +0.002 A 
ATOM      5  C   UNL     1      30.402  63.348  49.845  1.00  0.00    +0.020 A 
ATOM      6  C   UNL     1      31.799  63.242  49.689  1.00  0.00    +0.037 A 
ATOM      7  S   UNL     1      32.711  63.660  48.297  1.00  0.00    -0.117 S 
ATOM      8  C   UNL     1      34.166  63.144  48.986  1.00  0.00    +0.110 A 
ATOM      9  C   UNL     1      34.016  62.780  50.314  1.00  0.00    +0.082 A 
ENDROOT
BRANCH   9  10
ATOM     10  C   UNL     1      35.167  62.411  51.139  1.00  0.00    +0.257 C 
ATOM     11  N   UNL     1      35.282  62.995  52.404  1.00  0.00    -0.338 N 
ATOM     12  O   UNL     1      36.033  61.660  50.691  1.00  0.00    -0.269 OA
ATOM     13  C   UNL     1      34.656  64.267  52.764  1.00  0.00    +0.121 C 
ATOM     14  C   UNL     1      36.362  62.568  53.274  1.00  0.00    +0.121 C 
ATOM     15  C   UNL     1      35.552  65.137  53.658  1.00  0.00    +0.041 C 
ATOM     16  C   UNL     1      37.503  63.580  53.262  1.00  0.00    +0.041 C 
ATOM     17  C   UNL     1      37.025  65.059  53.201  1.00  0.00    +0.060 C 
BRANCH  17  18
ATOM     18  N   UNL     1      37.957  65.933  53.966  1.00  0.00    -0.299 NA
ATOM     19  C   UNL     1      37.272  67.136  54.474  1.00  0.00    +0.085 C 
ATOM     20  C   UNL     1      38.602  65.233  55.101  1.00  0.00    +0.103 C 
ATOM     21  C   UNL     1      38.283  68.169  54.971  1.00  0.00    +0.017 C 
ATOM     22  C   UNL     1      39.390  66.146  56.075  1.00  0.00    +0.084 C 
ATOM     23  C   UNL     1      39.573  67.563  55.521  1.00  0.00    +0.021 C 
ATOM     24  C   UNL     1      38.701  66.158  57.426  1.00  0.00    +0.314 C 
ATOM     25  C   UNL     1      40.754  65.559  56.462  1.00  0.00    +0.068 C 
ATOM     26  O   UNL     1      37.683  66.771  57.705  1.00  0.00    -0.252 OA
ATOM     27  O   UNL     1      39.352  65.355  58.318  1.00  0.00    -0.459 OA
ATOM     28  C   UNL     1      40.485  64.728  57.707  1.00  0.00    +0.108 C 
ATOM     29  C   UNL     1      40.145  63.268  57.405  1.00  0.00    +0.056 C 
ATOM     30  C   UNL     1      41.657  64.793  58.687  1.00  0.00    +0.056 C 
ENDBRANCH  17  18
ENDBRANCH   9  10
BRANCH   8  31
ATOM     31  N   UNL     1      35.355  63.139  48.273  1.00  0.00    -0.299 N 
ATOM     32  C   UNL     1      35.735  62.264  47.277  1.00  0.00    +0.319 C 
ATOM     33  O   UNL     1      35.100  61.322  46.825  1.00  0.00    -0.248 OA
ATOM     34  N   UNL     1      37.000  62.584  46.811  1.00  0.00    -0.338 N 
ATOM     35  H   UNL     1      36.088  63.724  48.658  1.00  0.00    +0.172 HD
ATOM     36  H   UNL     1      37.316  63.531  46.957  1.00  0.00    +0.165 HD
BRANCH  34  37
ATOM     37  C   UNL     1      37.601  61.851  45.716  1.00  0.00    +0.114 C 
ATOM     38  C   UNL     1      38.432  62.749  44.819  1.00  0.00    +0.027 C 
ENDBRANCH  34  37
ENDBRANCH   8  31
TORSDOF 4
ENDMDL
MODEL 17
REMARK VINA RESULT:    -7.444      3.540      9.207
REMARK INTER + INTRA:         -10.374
REMARK INTER:                  -9.065
REMARK INTRA:                  -1.309
REMARK UNBOUND:                -1.189
REMARK SMILES CCNC(=O)Nc1sc2ccccc2c1C(=O)N1CCC(N2CCC[C@@]3(C2)CC(C)(C)OC3=O)CC1
REMARK SMILES IDX 14 1 13 2 12 3 11 4 10 5 9 6 8 7 7 8 15 9 16 10 18 11 17 12
REMARK SMILES IDX 19 13 36 14 20 15 35 16 21 17 22 18 23 19 27 20 24 21 26 22
REMARK SMILES IDX 25 23 33 24 28 25 34 26 32 27 29 28 30 29 31 30 6 31 4 32
REMARK SMILES IDX 5 33 3 34 2 37 1 38
REMARK H PARENT 6 35 3 36
REMARK INDEX MAP 1 1 2 2 3 3 4 4 5 5 6 6 7 7 8 8 13 9 14 10 15 11 16 12 17 13
REMARK INDEX MAP 19 14 18 15 20 16 21 17 22 18 23 19 26 20 24 21 27 22 25 23
REMARK INDEX MAP 28 24 31 25 29 26 30 27 32 28 33 29 34 30 9 31 10 32 11 33
REMARK INDEX MAP 12 34 41 35 42 36 35 37 36 38
ROOT
ATOM      1  C   UNL     1      32.650  62.883  51.621  1.00  0.00    +0.007 A 
ATOM      2  C   UNL     1      32.243  62.542  52.939  1.00  0.00    +0.010 A 
ATOM      3  C   UNL     1      30.896  62.328  53.242  1.00  0.00    +0.001 A 
ATOM      4  C   UNL     1      29.931  62.438  52.253  1.00  0.00    +0.002 A 
ATOM      5  C   UNL     1      30.296  62.751  50.942  1.00  0.00    +0.020 A 
ATOM      6  C   UNL     1      31.657  62.959  50.641  1.00  0.00    +0.037 A 
ATOM      7  S   UNL     1      32.325  63.315  49.102  1.00  0.00    -0.117 S 
ATOM      8  C   UNL     1      33.910  63.305  49.688  1.00  0.00    +0.110 A 
ATOM      9  C   UNL     1      33.958  63.171  51.066  1.00  0.00    +0.082 A 
ENDROOT
BRANCH   9  10
ATOM     10  C   UNL     1      35.223  63.252  51.798  1.00  0.00    +0.257 C 
ATOM     11  N   UNL     1      35.341  64.222  52.799  1.00  0.00    -0.338 N 
ATOM     12  O   UNL     1      36.166  62.527  51.483  1.00  0.00    -0.269 OA
ATOM     13  C   UNL     1      34.532  65.441  52.839  1.00  0.00    +0.121 C 
ATOM     14  C   UNL     1      36.550  64.253  53.600  1.00  0.00    +0.121 C 
ATOM     15  C   UNL     1      35.334  66.668  53.297  1.00  0.00    +0.041 C 
ATOM     16  C   UNL     1      37.488  65.359  53.126  1.00  0.00    +0.041 C 
ATOM     17  C   UNL     1      36.752  66.656  52.687  1.00  0.00    +0.060 C 
BRANCH  17  18
ATOM     18  N   UNL     1      37.577  67.852  53.016  1.00  0.00    -0.299 NA
ATOM     19  C   UNL     1      37.127  68.489  54.267  1.00  0.00    +0.085 C 
ATOM     20  C   UNL     1      39.022  67.542  53.128  1.00  0.00    +0.103 C 
ATOM     21  C   UNL     1      37.753  69.874  54.428  1.00  0.00    +0.017 C 
ATOM     22  C   UNL     1      39.897  68.685  53.702  1.00  0.00    +0.084 C 
ATOM     23  C   UNL     1      39.134  70.011  53.790  1.00  0.00    +0.021 C 
ATOM     24  C   UNL     1      40.451  68.267  55.051  1.00  0.00    +0.314 C 
ATOM     25  C   UNL     1      41.199  68.885  52.915  1.00  0.00    +0.068 C 
ATOM     26  O   UNL     1      39.831  68.239  56.102  1.00  0.00    -0.252 OA
ATOM     27  O   UNL     1      41.757  67.884  54.950  1.00  0.00    -0.459 OA
ATOM     28  C   UNL     1      42.213  67.978  53.595  1.00  0.00    +0.108 C 
ATOM     29  C   UNL     1      42.276  66.573  52.993  1.00  0.00    +0.056 C 
ATOM     30  C   UNL     1      43.608  68.601  53.598  1.00  0.00    +0.056 C 
ENDBRANCH  17  18
ENDBRANCH   9  10
BRANCH   8  31
ATOM     31  N   UNL     1      35.005  63.452  48.849  1.00  0.00    -0.299 N 
ATOM     32  C   UNL     1      35.383  62.632  47.807  1.00  0.00    +0.319 C 
ATOM     33  O   UNL     1      34.829  61.615  47.416  1.00  0.00    -0.248 OA
ATOM     34  N   UNL     1      36.537  63.114  47.210  1.00  0.00    -0.338 N 
ATOM     35  H   UNL     1      35.694  64.128  49.159  1.00  0.00    +0.172 HD
ATOM     36  H   UNL     1      36.742  64.094  47.333  1.00  0.00    +0.165 HD
BRANCH  34  37
ATOM     37  C   UNL     1      37.104  62.462  46.047  1.00  0.00    +0.114 C 
ATOM     38  C   UNL     1      38.155  61.435  46.428  1.00  0.00    +0.027 C 
ENDBRANCH  34  37
ENDBRANCH   8  31
TORSDOF 4
ENDMDL
MODEL 18
REMARK VINA RESULT:    -7.361      5.089      9.112
REMARK INTER + INTRA:         -10.272
REMARK INTER:                  -8.832
REMARK INTRA:                  -1.439
REMARK UNBOUND:                -1.189
REMARK SMILES CCNC(=O)Nc1sc2ccccc2c1C(=O)N1CCC(N2CCC[C@@]3(C2)CC(C)(C)OC3=O)CC1
REMARK SMILES IDX 14 1 13 2 12 3 11 4 10 5 9 6 8 7 7 8 15 9 16 10 18 11 17 12
REMARK SMILES IDX 19 13 36 14 20 15 35 16 21 17 22 18 23 19 27 20 24 21 26 22
REMARK SMILES IDX 25 23 33 24 28 25 34 26 32 27 29 28 30 29 31 30 6 31 4 32
REMARK SMILES IDX 5 33 3 34 2 37 1 38
REMARK H PARENT 6 35 3 36
REMARK INDEX MAP 1 1 2 2 3 3 4 4 5 5 6 6 7 7 8 8 13 9 14 10 15 11 16 12 17 13
REMARK INDEX MAP 19 14 18 15 20 16 21 17 22 18 23 19 26 20 24 21 27 22 25 23
REMARK INDEX MAP 28 24 31 25 29 26 30 27 32 28 33 29 34 30 9 31 10 32 11 33
REMARK INDEX MAP 12 34 41 35 42 36 35 37 36 38
ROOT
ATOM      1  C   UNL     1      38.844  72.459  53.013  1.00  0.00    +0.007 A 
ATOM      2  C   UNL     1      38.613  72.496  54.414  1.00  0.00    +0.010 A 
ATOM      3  C   UNL     1      38.001  73.601  55.013  1.00  0.00    +0.001 A 
ATOM      4  C   UNL     1      37.600  74.681  54.241  1.00  0.00    +0.002 A 
ATOM      5  C   UNL     1      37.793  74.670  52.858  1.00  0.00    +0.020 A 
ATOM      6  C   UNL     1      38.404  73.550  52.260  1.00  0.00    +0.037 A 
ATOM      7  S   UNL     1      38.702  73.314  50.587  1.00  0.00    -0.117 S 
ATOM      8  C   UNL     1      39.340  71.768  50.828  1.00  0.00    +0.110 A 
ATOM      9  C   UNL     1      39.468  71.457  52.171  1.00  0.00    +0.082 A 
ENDROOT
BRANCH   9  10
ATOM     10  C   UNL     1      40.105  70.215  52.610  1.00  0.00    +0.257 C 
ATOM     11  N   UNL     1      39.327  69.053  52.639  1.00  0.00    -0.338 N 
ATOM     12  O   UNL     1      41.271  70.224  53.002  1.00  0.00    -0.269 OA
ATOM     13  C   UNL     1      37.868  69.063  52.747  1.00  0.00    +0.121 C 
ATOM     14  C   UNL     1      39.965  67.795  52.977  1.00  0.00    +0.121 C 
ATOM     15  C   UNL     1      37.334  67.943  53.652  1.00  0.00    +0.041 C 
ATOM     16  C   UNL     1      39.680  67.412  54.426  1.00  0.00    +0.041 C 
ATOM     17  C   UNL     1      38.237  67.760  54.890  1.00  0.00    +0.060 C 
BRANCH  17  18
ATOM     18  N   UNL     1      37.752  66.744  55.866  1.00  0.00    -0.299 NA
ATOM     19  C   UNL     1      36.942  65.705  55.203  1.00  0.00    +0.085 C 
ATOM     20  C   UNL     1      38.853  66.090  56.613  1.00  0.00    +0.103 C 
ATOM     21  C   UNL     1      36.191  64.861  56.232  1.00  0.00    +0.017 C 
ATOM     22  C   UNL     1      38.434  64.863  57.460  1.00  0.00    +0.084 C 
ATOM     23  C   UNL     1      36.912  64.727  57.572  1.00  0.00    +0.021 C 
ATOM     24  C   UNL     1      39.066  63.610  56.881  1.00  0.00    +0.314 C 
ATOM     25  C   UNL     1      39.060  64.870  58.861  1.00  0.00    +0.068 C 
ATOM     26  O   UNL     1      38.697  63.020  55.879  1.00  0.00    -0.252 OA
ATOM     27  O   UNL     1      40.149  63.221  57.616  1.00  0.00    -0.459 OA
ATOM     28  C   UNL     1      40.375  64.120  58.708  1.00  0.00    +0.108 C 
ATOM     29  C   UNL     1      41.560  65.026  58.370  1.00  0.00    +0.056 C 
ATOM     30  C   UNL     1      40.696  63.293  59.953  1.00  0.00    +0.056 C 
ENDBRANCH  17  18
ENDBRANCH   9  10
BRANCH   8  31
ATOM     31  N   UNL     1      39.712  70.954  49.768  1.00  0.00    -0.299 N 
ATOM     32  C   UNL     1      38.896  70.161  48.989  1.00  0.00    +0.319 C 
ATOM     33  O   UNL     1      37.685  70.018  49.077  1.00  0.00    -0.248 OA
ATOM     34  N   UNL     1      39.644  69.494  48.032  1.00  0.00    -0.338 N 
ATOM     35  H   UNL     1      40.709  70.788  49.685  1.00  0.00    +0.172 HD
ATOM     36  H   UNL     1      40.536  69.897  47.785  1.00  0.00    +0.165 HD
BRANCH  34  37
ATOM     37  C   UNL     1      39.009  68.643  47.047  1.00  0.00    +0.114 C 
ATOM     38  C   UNL     1      38.968  67.193  47.491  1.00  0.00    +0.027 C 
ENDBRANCH  34  37
ENDBRANCH   8  31
TORSDOF 4
ENDMDL
MODEL 19
REMARK VINA RESULT:    -7.241      5.552      8.835
REMARK INTER + INTRA:         -10.122
REMARK INTER:                  -8.237
REMARK INTRA:                  -1.885
REMARK UNBOUND:                -1.189
REMARK SMILES CCNC(=O)Nc1sc2ccccc2c1C(=O)N1CCC(N2CCC[C@@]3(C2)CC(C)(C)OC3=O)CC1
REMARK SMILES IDX 14 1 13 2 12 3 11 4 10 5 9 6 8 7 7 8 15 9 16 10 18 11 17 12
REMARK SMILES IDX 19 13 36 14 20 15 35 16 21 17 22 18 23 19 27 20 24 21 26 22
REMARK SMILES IDX 25 23 33 24 28 25 34 26 32 27 29 28 30 29 31 30 6 31 4 32
REMARK SMILES IDX 5 33 3 34 2 37 1 38
REMARK H PARENT 6 35 3 36
REMARK INDEX MAP 1 1 2 2 3 3 4 4 5 5 6 6 7 7 8 8 13 9 14 10 15 11 16 12 17 13
REMARK INDEX MAP 19 14 18 15 20 16 21 17 22 18 23 19 26 20 24 21 27 22 25 23
REMARK INDEX MAP 28 24 31 25 29 26 30 27 32 28 33 29 34 30 9 31 10 32 11 33
REMARK INDEX MAP 12 34 41 35 42 36 35 37 36 38
ROOT
ATOM      1  C   UNL     1      42.811  64.799  61.258  1.00  0.00    +0.007 A 
ATOM      2  C   UNL     1      42.296  63.589  61.794  1.00  0.00    +0.010 A 
ATOM      3  C   UNL     1      43.146  62.637  62.365  1.00  0.00    +0.001 A 
ATOM      4  C   UNL     1      44.512  62.866  62.424  1.00  0.00    +0.002 A 
ATOM      5  C   UNL     1      45.051  64.053  61.925  1.00  0.00    +0.020 A 
ATOM      6  C   UNL     1      44.188  65.012  61.358  1.00  0.00    +0.037 A 
ATOM      7  S   UNL     1      44.630  66.543  60.723  1.00  0.00    -0.117 S 
ATOM      8  C   UNL     1      43.029  66.963  60.379  1.00  0.00    +0.110 A 
ATOM      9  C   UNL     1      42.153  65.914  60.606  1.00  0.00    +0.082 A 
ENDROOT
BRANCH   9  10
ATOM     10  C   UNL     1      40.734  66.019  60.266  1.00  0.00    +0.257 C 
ATOM     11  N   UNL     1      40.269  65.302  59.159  1.00  0.00    -0.338 N 
ATOM     12  O   UNL     1      39.999  66.772  60.905  1.00  0.00    -0.269 OA
ATOM     13  C   UNL     1      41.130  64.874  58.057  1.00  0.00    +0.121 C 
ATOM     14  C   UNL     1      38.848  65.315  58.866  1.00  0.00    +0.121 C 
ATOM     15  C   UNL     1      40.447  65.001  56.688  1.00  0.00    +0.041 C 
ATOM     16  C   UNL     1      38.536  66.284  57.730  1.00  0.00    +0.041 C 
ATOM     17  C   UNL     1      39.613  66.298  56.608  1.00  0.00    +0.060 C 
BRANCH  17  18
ATOM     18  N   UNL     1      38.975  66.543  55.285  1.00  0.00    -0.299 NA
ATOM     19  C   UNL     1      37.506  66.444  55.369  1.00  0.00    +0.085 C 
ATOM     20  C   UNL     1      39.335  67.859  54.707  1.00  0.00    +0.103 C 
ATOM     21  C   UNL     1      36.885  66.376  53.974  1.00  0.00    +0.017 C 
ATOM     22  C   UNL     1      38.519  68.274  53.457  1.00  0.00    +0.084 C 
ATOM     23  C   UNL     1      37.681  67.117  52.901  1.00  0.00    +0.021 C 
ATOM     24  C   UNL     1      37.658  69.477  53.791  1.00  0.00    +0.314 C 
ATOM     25  C   UNL     1      39.399  68.860  52.344  1.00  0.00    +0.068 C 
ATOM     26  O   UNL     1      36.623  69.460  54.437  1.00  0.00    -0.252 OA
ATOM     27  O   UNL     1      38.206  70.626  53.297  1.00  0.00    -0.459 OA
ATOM     28  C   UNL     1      39.438  70.355  52.621  1.00  0.00    +0.108 C 
ATOM     29  C   UNL     1      40.603  70.779  53.517  1.00  0.00    +0.056 C 
ATOM     30  C   UNL     1      39.464  71.164  51.324  1.00  0.00    +0.056 C 
ENDBRANCH  17  18
ENDBRANCH   9  10
BRANCH   8  31
ATOM     31  N   UNL     1      42.687  68.216  59.893  1.00  0.00    -0.299 N 
ATOM     32  C   UNL     1      42.615  68.617  58.576  1.00  0.00    +0.319 C 
ATOM     33  O   UNL     1      42.839  67.949  57.576  1.00  0.00    -0.248 OA
ATOM     34  N   UNL     1      42.241  69.949  58.498  1.00  0.00    -0.338 N 
ATOM     35  H   UNL     1      42.671  68.955  60.588  1.00  0.00    +0.172 HD
ATOM     36  H   UNL     1      41.749  70.334  59.290  1.00  0.00    +0.165 HD
BRANCH  34  37
ATOM     37  C   UNL     1      42.034  70.593  57.217  1.00  0.00    +0.114 C 
ATOM     38  C   UNL     1      43.144  71.575  56.890  1.00  0.00    +0.027 C 
ENDBRANCH  34  37
ENDBRANCH   8  31
TORSDOF 4
ENDMDL
MODEL 20
REMARK VINA RESULT:    -7.041      6.375     10.770
REMARK INTER + INTRA:          -9.877
REMARK INTER:                  -8.379
REMARK INTRA:                  -1.498
REMARK UNBOUND:                -1.189
REMARK SMILES CCNC(=O)Nc1sc2ccccc2c1C(=O)N1CCC(N2CCC[C@@]3(C2)CC(C)(C)OC3=O)CC1
REMARK SMILES IDX 14 1 13 2 12 3 11 4 10 5 9 6 8 7 7 8 15 9 16 10 18 11 17 12
REMARK SMILES IDX 19 13 36 14 20 15 35 16 21 17 22 18 23 19 27 20 24 21 26 22
REMARK SMILES IDX 25 23 33 24 28 25 34 26 32 27 29 28 30 29 31 30 6 31 4 32
REMARK SMILES IDX 5 33 3 34 2 37 1 38
REMARK H PARENT 6 35 3 36
REMARK INDEX MAP 1 1 2 2 3 3 4 4 5 5 6 6 7 7 8 8 13 9 14 10 15 11 16 12 17 13
REMARK INDEX MAP 19 14 18 15 20 16 21 17 22 18 23 19 26 20 24 21 27 22 25 23
REMARK INDEX MAP 28 24 31 25 29 26 30 27 32 28 33 29 34 30 9 31 10 32 11 33
REMARK INDEX MAP 12 34 41 35 42 36 35 37 36 38
ROOT
ATOM      1  C   UNL     1      40.177  68.502  50.321  1.00  0.00    +0.007 A 
ATOM      2  C   UNL     1      41.221  68.151  49.424  1.00  0.00    +0.010 A 
ATOM      3  C   UNL     1      40.954  67.419  48.263  1.00  0.00    +0.001 A 
ATOM      4  C   UNL     1      39.657  67.031  47.964  1.00  0.00    +0.002 A 
ATOM      5  C   UNL     1      38.604  67.376  48.813  1.00  0.00    +0.020 A 
ATOM      6  C   UNL     1      38.878  68.120  49.978  1.00  0.00    +0.037 A 
ATOM      7  S   UNL     1      37.738  68.679  51.132  1.00  0.00    -0.117 S 
ATOM      8  C   UNL     1      38.917  69.475  52.044  1.00  0.00    +0.110 A 
ATOM      9  C   UNL     1      40.198  69.224  51.579  1.00  0.00    +0.082 A 
ENDROOT
BRANCH   9  10
ATOM     10  C   UNL     1      41.378  69.720  52.287  1.00  0.00    +0.257 C 
ATOM     11  N   UNL     1      42.123  68.807  53.040  1.00  0.00    -0.338 N 
ATOM     12  O   UNL     1      41.654  70.919  52.265  1.00  0.00    -0.269 OA
ATOM     13  C   UNL     1      41.572  67.560  53.570  1.00  0.00    +0.121 C 
ATOM     14  C   UNL     1      43.350  69.259  53.668  1.00  0.00    +0.121 C 
ATOM     15  C   UNL     1      42.089  67.235  54.979  1.00  0.00    +0.041 C 
ATOM     16  C   UNL     1      43.133  69.530  55.154  1.00  0.00    +0.041 C 
ATOM     17  C   UNL     1      42.176  68.514  55.840  1.00  0.00    +0.060 C 
BRANCH  17  18
ATOM     18  N   UNL     1      42.596  68.283  57.250  1.00  0.00    -0.299 NA
ATOM     19  C   UNL     1      42.077  69.333  58.146  1.00  0.00    +0.085 C 
ATOM     20  C   UNL     1      42.175  66.959  57.767  1.00  0.00    +0.103 C 
ATOM     21  C   UNL     1      42.765  69.273  59.510  1.00  0.00    +0.017 C 
ATOM     22  C   UNL     1      42.368  66.756  59.291  1.00  0.00    +0.084 C 
ATOM     23  C   UNL     1      43.209  67.871  59.922  1.00  0.00    +0.021 C 
ATOM     24  C   UNL     1      41.011  66.632  59.959  1.00  0.00    +0.314 C 
ATOM     25  C   UNL     1      42.975  65.389  59.634  1.00  0.00    +0.068 C 
ATOM     26  O   UNL     1      40.244  67.551  60.198  1.00  0.00    -0.252 OA
ATOM     27  O   UNL     1      40.722  65.329  60.248  1.00  0.00    -0.459 OA
ATOM     28  C   UNL     1      41.781  64.465  59.820  1.00  0.00    +0.108 C 
ATOM     29  C   UNL     1      41.354  63.752  58.535  1.00  0.00    +0.056 C 
ATOM     30  C   UNL     1      42.036  63.436  60.920  1.00  0.00    +0.056 C 
ENDBRANCH  17  18
ENDBRANCH   9  10
BRANCH   8  31
ATOM     31  N   UNL     1      38.592  70.253  53.146  1.00  0.00    -0.299 N 
ATOM     32  C   UNL     1      38.182  71.569  53.155  1.00  0.00    +0.319 C 
ATOM     33  O   UNL     1      38.023  72.311  52.197  1.00  0.00    -0.248 OA
ATOM     34  N   UNL     1      37.957  71.994  54.455  1.00  0.00    -0.338 N 
ATOM     35  H   UNL     1      38.867  69.863  54.040  1.00  0.00    +0.172 HD
ATOM     36  H   UNL     1      37.768  71.281  55.143  1.00  0.00    +0.165 HD
BRANCH  34  37
ATOM     37  C   UNL     1      37.457  73.325  54.730  1.00  0.00    +0.114 C 
ATOM     38  C   UNL     1      38.554  74.255  55.213  1.00  0.00    +0.027 C 
ENDBRANCH  34  37
ENDBRANCH   8  31
TORSDOF 4
ENDMDL
