MODEL 1
REMARK VINA RESULT:   -10.350      0.000      0.000
REMARK INTER + INTRA:         -13.926
REMARK INTER:                 -12.770
REMARK INTRA:                  -1.156
REMARK UNBOUND:                -1.156
REMARK SMILES CCNC(=O)Nc1sc2ccccc2c1C(=O)N1CCC(N2CCC[C@@]3(C2)CC(C)(C)OC3=O)CC1
REMARK SMILES IDX 14 1 13 2 12 3 11 4 10 5 9 6 8 7 7 8 15 9 16 10 18 11 17 12
REMARK SMILES IDX 19 13 36 14 20 15 35 16 21 17 22 18 23 19 27 20 24 21 26 22
REMARK SMILES IDX 25 23 33 24 28 25 34 26 32 27 29 28 30 29 31 30 6 31 4 32
REMARK SMILES IDX 5 33 3 34 2 37 1 38
REMARK H PARENT 6 35 3 36
REMARK INDEX MAP 1 1 2 2 3 3 4 4 5 5 6 6 7 7 8 8 13 9 14 10 15 11 16 12 17 13
REMARK INDEX MAP 19 14 18 15 20 16 21 17 22 18 23 19 26 20 24 21 27 22 25 23
REMARK INDEX MAP 28 24 31 25 29 26 30 27 32 28 33 29 34 30 9 31 10 32 11 33
REMARK INDEX MAP 12 34 41 35 42 36 35 37 36 38
ROOT
ATOM      1  C   UNL     1      37.942  66.793  53.959  1.00  0.00    +0.007 A 
ATOM      2  C   UNL     1      37.088  67.015  52.847  1.00  0.00    +0.010 A 
ATOM      3  C   UNL     1      37.374  68.012  51.909  1.00  0.00    +0.001 A 
ATOM      4  C   UNL     1      38.508  68.797  52.048  1.00  0.00    +0.002 A 
ATOM      5  C   UNL     1      39.381  68.593  53.118  1.00  0.00    +0.020 A 
ATOM      6  C   UNL     1      39.091  67.582  54.056  1.00  0.00    +0.037 A 
ATOM      7  S   UNL     1      40.039  67.140  55.416  1.00  0.00    -0.117 S 
ATOM      8  C   UNL     1      38.998  65.880  55.844  1.00  0.00    +0.110 A 
ATOM      9  C   UNL     1      37.856  65.855  55.062  1.00  0.00    +0.082 A 
ENDROOT
BRANCH   9  10
ATOM     10  C   UNL     1      36.765  64.918  55.333  1.00  0.00    +0.257 C 
ATOM     11  N   UNL     1      36.694  63.753  54.562  1.00  0.00    -0.338 N 
ATOM     12  O   UNL     1      35.907  65.194  56.171  1.00  0.00    -0.269 OA
ATOM     13  C   UNL     1      37.288  63.631  53.230  1.00  0.00    +0.121 C 
ATOM     14  C   UNL     1      35.679  62.767  54.881  1.00  0.00    +0.121 C 
ATOM     15  C   UNL     1      36.406  62.831  52.260  1.00  0.00    +0.041 C 
ATOM     16  C   UNL     1      34.499  62.868  53.918  1.00  0.00    +0.041 C 
ATOM     17  C   UNL     1      34.915  63.185  52.454  1.00  0.00    +0.060 C 
BRANCH  17  18
ATOM     18  N   UNL     1      33.991  62.511  51.500  1.00  0.00    -0.299 NA
ATOM     19  C   UNL     1      32.775  63.313  51.270  1.00  0.00    +0.085 C 
ATOM     20  C   UNL     1      34.626  62.218  50.193  1.00  0.00    +0.103 C 
ATOM     21  C   UNL     1      31.704  62.487  50.558  1.00  0.00    +0.017 C 
ATOM     22  C   UNL     1      33.656  61.742  49.082  1.00  0.00    +0.084 C 
ATOM     23  C   UNL     1      32.265  61.410  49.631  1.00  0.00    +0.021 C 
ATOM     24  C   UNL     1      33.589  62.791  47.987  1.00  0.00    +0.314 C 
ATOM     25  C   UNL     1      34.203  60.546  48.291  1.00  0.00    +0.068 C 
ATOM     26  O   UNL     1      32.978  63.846  48.042  1.00  0.00    -0.252 OA
ATOM     27  O   UNL     1      34.338  62.422  46.907  1.00  0.00    -0.459 OA
ATOM     28  C   UNL     1      34.976  61.161  47.135  1.00  0.00    +0.108 C 
ATOM     29  C   UNL     1      36.455  61.400  47.448  1.00  0.00    +0.056 C 
ATOM     30  C   UNL     1      34.847  60.320  45.865  1.00  0.00    +0.056 C 
ENDBRANCH  17  18
ENDBRANCH   9  10
BRANCH   8  31
ATOM     31  N   UNL     1      39.283  65.017  56.892  1.00  0.00    -0.299 N 
ATOM     32  C   UNL     1      39.670  63.696  56.813  1.00  0.00    +0.319 C 
ATOM     33  O   UNL     1      39.841  63.025  55.805  1.00  0.00    -0.248 OA
ATOM     34  N   UNL     1      39.856  63.172  58.082  1.00  0.00    -0.338 N 
ATOM     35  H   UNL     1      38.992  65.344  57.807  1.00  0.00    +0.172 HD
ATOM     36  H   UNL     1      40.040  63.828  58.826  1.00  0.00    +0.165 HD
BRANCH  34  37
ATOM     37  C   UNL     1      40.327  61.815  58.268  1.00  0.00    +0.114 C 
ATOM     38  C   UNL     1      41.830  61.758  58.472  1.00  0.00    +0.027 C 
ENDBRANCH  34  37
ENDBRANCH   8  31
TORSDOF 4
ENDMDL
MODEL 2
REMARK VINA RESULT:   -10.018      1.915      3.029
REMARK INTER + INTRA:         -13.516
REMARK INTER:                 -12.172
REMARK INTRA:                  -1.345
REMARK UNBOUND:                -1.156
REMARK SMILES CCNC(=O)Nc1sc2ccccc2c1C(=O)N1CCC(N2CCC[C@@]3(C2)CC(C)(C)OC3=O)CC1
REMARK SMILES IDX 14 1 13 2 12 3 11 4 10 5 9 6 8 7 7 8 15 9 16 10 18 11 17 12
REMARK SMILES IDX 19 13 36 14 20 15 35 16 21 17 22 18 23 19 27 20 24 21 26 22
REMARK SMILES IDX 25 23 33 24 28 25 34 26 32 27 29 28 30 29 31 30 6 31 4 32
REMARK SMILES IDX 5 33 3 34 2 37 1 38
REMARK H PARENT 6 35 3 36
REMARK INDEX MAP 1 1 2 2 3 3 4 4 5 5 6 6 7 7 8 8 13 9 14 10 15 11 16 12 17 13
REMARK INDEX MAP 19 14 18 15 20 16 21 17 22 18 23 19 26 20 24 21 27 22 25 23
REMARK INDEX MAP 28 24 31 25 29 26 30 27 32 28 33 29 34 30 9 31 10 32 11 33
REMARK INDEX MAP 12 34 41 35 42 36 35 37 36 38
ROOT
ATOM      1  C   UNL     1      37.947  66.764  54.842  1.00  0.00    +0.007 A 
ATOM      2  C   UNL     1      37.037  67.505  54.042  1.00  0.00    +0.010 A 
ATOM      3  C   UNL     1      37.374  68.773  53.557  1.00  0.00    +0.001 A 
ATOM      4  C   UNL     1      38.613  69.324  53.845  1.00  0.00    +0.002 A 
ATOM      5  C   UNL     1      39.540  68.616  54.611  1.00  0.00    +0.020 A 
ATOM      6  C   UNL     1      39.198  67.336  55.091  1.00  0.00    +0.037 A 
ATOM      7  S   UNL     1      40.192  66.285  56.013  1.00  0.00    -0.117 S 
ATOM      8  C   UNL     1      39.029  65.058  56.034  1.00  0.00    +0.110 A 
ATOM      9  C   UNL     1      37.830  65.463  55.472  1.00  0.00    +0.082 A 
ENDROOT
BRANCH   9  10
ATOM     10  C   UNL     1      36.649  64.600  55.488  1.00  0.00    +0.257 C 
ATOM     11  N   UNL     1      36.443  63.750  54.396  1.00  0.00    -0.338 N 
ATOM     12  O   UNL     1      35.837  64.679  56.409  1.00  0.00    -0.269 OA
ATOM     13  C   UNL     1      37.002  63.996  53.067  1.00  0.00    +0.121 C 
ATOM     14  C   UNL     1      35.333  62.817  54.439  1.00  0.00    +0.121 C 
ATOM     15  C   UNL     1      36.027  63.632  51.938  1.00  0.00    +0.041 C 
ATOM     16  C   UNL     1      34.158  63.331  53.612  1.00  0.00    +0.041 C 
ATOM     17  C   UNL     1      34.586  64.050  52.301  1.00  0.00    +0.060 C 
BRANCH  17  18
ATOM     18  N   UNL     1      33.581  63.805  51.229  1.00  0.00    -0.299 NA
ATOM     19  C   UNL     1      34.227  63.378  49.974  1.00  0.00    +0.085 C 
ATOM     20  C   UNL     1      32.564  62.797  51.612  1.00  0.00    +0.103 C 
ATOM     21  C   UNL     1      33.242  63.439  48.806  1.00  0.00    +0.017 C 
ATOM     22  C   UNL     1      31.643  62.322  50.460  1.00  0.00    +0.084 C 
ATOM     23  C   UNL     1      31.789  63.190  49.206  1.00  0.00    +0.021 C 
ATOM     24  C   UNL     1      31.917  60.860  50.164  1.00  0.00    +0.314 C 
ATOM     25  C   UNL     1      30.167  62.252  50.874  1.00  0.00    +0.068 C 
ATOM     26  O   UNL     1      32.877  60.421  49.551  1.00  0.00    -0.252 OA
ATOM     27  O   UNL     1      30.952  60.059  50.703  1.00  0.00    -0.459 OA
ATOM     28  C   UNL     1      29.974  60.838  51.402  1.00  0.00    +0.108 C 
ATOM     29  C   UNL     1      30.216  60.709  52.907  1.00  0.00    +0.056 C 
ATOM     30  C   UNL     1      28.588  60.295  51.054  1.00  0.00    +0.056 C 
ENDBRANCH  17  18
ENDBRANCH   9  10
BRANCH   8  31
ATOM     31  N   UNL     1      39.283  63.815  56.595  1.00  0.00    -0.299 N 
ATOM     32  C   UNL     1      39.140  63.442  57.914  1.00  0.00    +0.319 C 
ATOM     33  O   UNL     1      38.760  64.130  58.851  1.00  0.00    -0.248 OA
ATOM     34  N   UNL     1      39.498  62.114  58.081  1.00  0.00    -0.338 N 
ATOM     35  H   UNL     1      39.805  63.177  56.003  1.00  0.00    +0.172 HD
ATOM     36  H   UNL     1      39.464  61.524  57.263  1.00  0.00    +0.165 HD
BRANCH  34  37
ATOM     37  C   UNL     1      39.376  61.463  59.368  1.00  0.00    +0.114 C 
ATOM     38  C   UNL     1      40.699  61.419  60.111  1.00  0.00    +0.027 C 
ENDBRANCH  34  37
ENDBRANCH   8  31
TORSDOF 4
ENDMDL
MODEL 3
REMARK VINA RESULT:    -9.833      2.062      4.465
REMARK INTER + INTRA:         -13.289
REMARK INTER:                 -12.089
REMARK INTRA:                  -1.200
REMARK UNBOUND:                -1.156
REMARK SMILES CCNC(=O)Nc1sc2ccccc2c1C(=O)N1CCC(N2CCC[C@@]3(C2)CC(C)(C)OC3=O)CC1
REMARK SMILES IDX 14 1 13 2 12 3 11 4 10 5 9 6 8 7 7 8 15 9 16 10 18 11 17 12
REMARK SMILES IDX 19 13 36 14 20 15 35 16 21 17 22 18 23 19 27 20 24 21 26 22
REMARK SMILES IDX 25 23 33 24 28 25 34 26 32 27 29 28 30 29 31 30 6 31 4 32
REMARK SMILES IDX 5 33 3 34 2 37 1 38
REMARK H PARENT 6 35 3 36
REMARK INDEX MAP 1 1 2 2 3 3 4 4 5 5 6 6 7 7 8 8 13 9 14 10 15 11 16 12 17 13
REMARK INDEX MAP 19 14 18 15 20 16 21 17 22 18 23 19 26 20 24 21 27 22 25 23
REMARK INDEX MAP 28 24 31 25 29 26 30 27 32 28 33 29 34 30 9 31 10 32 11 33
REMARK INDEX MAP 12 34 41 35 42 36 35 37 36 38
ROOT
ATOM      1  C   UNL     1      38.153  65.685  56.204  1.00  0.00    +0.007 A 
ATOM      2  C   UNL     1      37.549  65.218  57.401  1.00  0.00    +0.010 A 
ATOM      3  C   UNL     1      38.328  64.772  58.473  1.00  0.00    +0.001 A 
ATOM      4  C   UNL     1      39.711  64.787  58.384  1.00  0.00    +0.002 A 
ATOM      5  C   UNL     1      40.340  65.259  57.230  1.00  0.00    +0.020 A 
ATOM      6  C   UNL     1      39.549  65.714  56.157  1.00  0.00    +0.037 A 
ATOM      7  S   UNL     1      40.110  66.364  54.671  1.00  0.00    -0.117 S 
ATOM      8  C   UNL     1      38.545  66.672  54.112  1.00  0.00    +0.110 A 
ATOM      9  C   UNL     1      37.575  66.171  54.965  1.00  0.00    +0.082 A 
ENDROOT
BRANCH   9  10
ATOM     10  C   UNL     1      36.154  66.225  54.622  1.00  0.00    +0.257 C 
ATOM     11  N   UNL     1      35.427  65.031  54.651  1.00  0.00    -0.338 N 
ATOM     12  O   UNL     1      35.647  67.284  54.256  1.00  0.00    -0.269 OA
ATOM     13  C   UNL     1      36.040  63.710  54.510  1.00  0.00    +0.121 C 
ATOM     14  C   UNL     1      33.997  65.080  54.408  1.00  0.00    +0.121 C 
ATOM     15  C   UNL     1      35.189  62.749  53.667  1.00  0.00    +0.041 C 
ATOM     16  C   UNL     1      33.672  64.650  52.981  1.00  0.00    +0.041 C 
ATOM     17  C   UNL     1      34.560  63.484  52.463  1.00  0.00    +0.060 C 
BRANCH  17  18
ATOM     18  N   UNL     1      33.778  62.609  51.545  1.00  0.00    -0.299 NA
ATOM     19  C   UNL     1      32.456  63.190  51.245  1.00  0.00    +0.085 C 
ATOM     20  C   UNL     1      34.483  62.337  50.270  1.00  0.00    +0.103 C 
ATOM     21  C   UNL     1      31.548  62.158  50.576  1.00  0.00    +0.017 C 
ATOM     22  C   UNL     1      33.628  61.640  49.182  1.00  0.00    +0.084 C 
ATOM     23  C   UNL     1      32.294  61.125  49.733  1.00  0.00    +0.021 C 
ATOM     24  C   UNL     1      33.422  62.590  48.017  1.00  0.00    +0.314 C 
ATOM     25  C   UNL     1      34.377  60.498  48.482  1.00  0.00    +0.068 C 
ATOM     26  O   UNL     1      32.650  63.535  47.991  1.00  0.00    -0.252 OA
ATOM     27  O   UNL     1      34.246  62.276  46.974  1.00  0.00    -0.459 OA
ATOM     28  C   UNL     1      35.071  61.151  47.297  1.00  0.00    +0.108 C 
ATOM     29  C   UNL     1      36.485  61.644  47.613  1.00  0.00    +0.056 C 
ATOM     30  C   UNL     1      35.109  60.219  46.087  1.00  0.00    +0.056 C 
ENDBRANCH  17  18
ENDBRANCH   9  10
BRANCH   8  31
ATOM     31  N   UNL     1      38.309  67.325  52.911  1.00  0.00    -0.299 N 
ATOM     32  C   UNL     1      38.388  68.679  52.660  1.00  0.00    +0.319 C 
ATOM     33  O   UNL     1      38.682  69.571  53.444  1.00  0.00    -0.248 OA
ATOM     34  N   UNL     1      38.076  68.942  51.336  1.00  0.00    -0.338 N 
ATOM     35  H   UNL     1      37.852  66.765  52.201  1.00  0.00    +0.172 HD
ATOM     36  H   UNL     1      38.184  68.183  50.681  1.00  0.00    +0.165 HD
BRANCH  34  37
ATOM     37  C   UNL     1      38.148  70.287  50.805  1.00  0.00    +0.114 C 
ATOM     38  C   UNL     1      38.465  70.295  49.320  1.00  0.00    +0.027 C 
ENDBRANCH  34  37
ENDBRANCH   8  31
TORSDOF 4
ENDMDL
MODEL 4
REMARK VINA RESULT:    -9.474      3.339      9.518
REMARK INTER + INTRA:         -12.846
REMARK INTER:                 -11.497
REMARK INTRA:                  -1.349
REMARK UNBOUND:                -1.156
REMARK SMILES CCNC(=O)Nc1sc2ccccc2c1C(=O)N1CCC(N2CCC[C@@]3(C2)CC(C)(C)OC3=O)CC1
REMARK SMILES IDX 14 1 13 2 12 3 11 4 10 5 9 6 8 7 7 8 15 9 16 10 18 11 17 12
REMARK SMILES IDX 19 13 36 14 20 15 35 16 21 17 22 18 23 19 27 20 24 21 26 22
REMARK SMILES IDX 25 23 33 24 28 25 34 26 32 27 29 28 30 29 31 30 6 31 4 32
REMARK SMILES IDX 5 33 3 34 2 37 1 38
REMARK H PARENT 6 35 3 36
REMARK INDEX MAP 1 1 2 2 3 3 4 4 5 5 6 6 7 7 8 8 13 9 14 10 15 11 16 12 17 13
REMARK INDEX MAP 19 14 18 15 20 16 21 17 22 18 23 19 26 20 24 21 27 22 25 23
REMARK INDEX MAP 28 24 31 25 29 26 30 27 32 28 33 29 34 30 9 31 10 32 11 33
REMARK INDEX MAP 12 34 41 35 42 36 35 37 36 38
ROOT
ATOM      1  C   UNL     1      33.790  60.094  47.690  1.00  0.00    +0.007 A 
ATOM      2  C   UNL     1      34.430  60.879  46.694  1.00  0.00    +0.010 A 
ATOM      3  C   UNL     1      35.130  60.277  45.644  1.00  0.00    +0.001 A 
ATOM      4  C   UNL     1      35.203  58.895  45.555  1.00  0.00    +0.002 A 
ATOM      5  C   UNL     1      34.568  58.092  46.504  1.00  0.00    +0.020 A 
ATOM      6  C   UNL     1      33.858  58.705  47.556  1.00  0.00    +0.037 A 
ATOM      7  S   UNL     1      32.980  57.915  48.800  1.00  0.00    -0.117 S 
ATOM      8  C   UNL     1      32.454  59.371  49.477  1.00  0.00    +0.110 A 
ATOM      9  C   UNL     1      33.034  60.472  48.868  1.00  0.00    +0.082 A 
ENDROOT
BRANCH   9  10
ATOM     10  C   UNL     1      32.809  61.828  49.369  1.00  0.00    +0.257 C 
ATOM     11  N   UNL     1      33.920  62.565  49.792  1.00  0.00    -0.338 N 
ATOM     12  O   UNL     1      31.664  62.267  49.470  1.00  0.00    -0.269 OA
ATOM     13  C   UNL     1      35.173  61.951  50.233  1.00  0.00    +0.121 C 
ATOM     14  C   UNL     1      33.729  63.944  50.199  1.00  0.00    +0.121 C 
ATOM     15  C   UNL     1      35.801  62.681  51.429  1.00  0.00    +0.041 C 
ATOM     16  C   UNL     1      33.707  64.065  51.720  1.00  0.00    +0.041 C 
ATOM     17  C   UNL     1      34.716  63.123  52.435  1.00  0.00    +0.060 C 
BRANCH  17  18
ATOM     18  N   UNL     1      35.243  63.773  53.667  1.00  0.00    -0.299 NA
ATOM     19  C   UNL     1      35.915  62.798  54.546  1.00  0.00    +0.085 C 
ATOM     20  C   UNL     1      36.182  64.883  53.375  1.00  0.00    +0.103 C 
ATOM     21  C   UNL     1      36.164  63.396  55.930  1.00  0.00    +0.017 C 
ATOM     22  C   UNL     1      36.946  65.437  54.604  1.00  0.00    +0.084 C 
ATOM     23  C   UNL     1      36.381  64.908  55.926  1.00  0.00    +0.021 C 
ATOM     24  C   UNL     1      38.424  65.125  54.462  1.00  0.00    +0.314 C 
ATOM     25  C   UNL     1      36.986  66.971  54.633  1.00  0.00    +0.068 C 
ATOM     26  O   UNL     1      38.947  64.038  54.651  1.00  0.00    -0.252 OA
ATOM     27  O   UNL     1      39.123  66.225  54.058  1.00  0.00    -0.459 OA
ATOM     28  C   UNL     1      38.250  67.345  53.874  1.00  0.00    +0.108 C 
ATOM     29  C   UNL     1      38.023  67.559  52.376  1.00  0.00    +0.056 C 
ATOM     30  C   UNL     1      38.919  68.581  54.475  1.00  0.00    +0.056 C 
ENDBRANCH  17  18
ENDBRANCH   9  10
BRANCH   8  31
ATOM     31  N   UNL     1      31.567  59.408  50.543  1.00  0.00    -0.299 N 
ATOM     32  C   UNL     1      30.222  59.105  50.530  1.00  0.00    +0.319 C 
ATOM     33  O   UNL     1      29.544  58.745  49.577  1.00  0.00    -0.248 OA
ATOM     34  N   UNL     1      29.680  59.266  51.794  1.00  0.00    -0.338 N 
ATOM     35  H   UNL     1      31.910  59.885  51.369  1.00  0.00    +0.172 HD
ATOM     36  H   UNL     1      30.317  59.221  52.575  1.00  0.00    +0.165 HD
BRANCH  34  37
ATOM     37  C   UNL     1      28.291  58.949  52.058  1.00  0.00    +0.114 C 
ATOM     38  C   UNL     1      27.959  59.038  53.536  1.00  0.00    +0.027 C 
ENDBRANCH  34  37
ENDBRANCH   8  31
TORSDOF 4
ENDMDL
MODEL 5
REMARK VINA RESULT:    -9.225      3.434      9.507
REMARK INTER + INTRA:         -12.538
REMARK INTER:                 -11.231
REMARK INTRA:                  -1.307
REMARK UNBOUND:                -1.156
REMARK SMILES CCNC(=O)Nc1sc2ccccc2c1C(=O)N1CCC(N2CCC[C@@]3(C2)CC(C)(C)OC3=O)CC1
REMARK SMILES IDX 14 1 13 2 12 3 11 4 10 5 9 6 8 7 7 8 15 9 16 10 18 11 17 12
REMARK SMILES IDX 19 13 36 14 20 15 35 16 21 17 22 18 23 19 27 20 24 21 26 22
REMARK SMILES IDX 25 23 33 24 28 25 34 26 32 27 29 28 30 29 31 30 6 31 4 32
REMARK SMILES IDX 5 33 3 34 2 37 1 38
REMARK H PARENT 6 35 3 36
REMARK INDEX MAP 1 1 2 2 3 3 4 4 5 5 6 6 7 7 8 8 13 9 14 10 15 11 16 12 17 13
REMARK INDEX MAP 19 14 18 15 20 16 21 17 22 18 23 19 26 20 24 21 27 22 25 23
REMARK INDEX MAP 28 24 31 25 29 26 30 27 32 28 33 29 34 30 9 31 10 32 11 33
REMARK INDEX MAP 12 34 41 35 42 36 35 37 36 38
ROOT
ATOM      1  C   UNL     1      34.263  59.901  47.228  1.00  0.00    +0.007 A 
ATOM      2  C   UNL     1      34.992  60.405  46.118  1.00  0.00    +0.010 A 
ATOM      3  C   UNL     1      35.557  59.540  45.176  1.00  0.00    +0.001 A 
ATOM      4  C   UNL     1      35.406  58.168  45.310  1.00  0.00    +0.002 A 
ATOM      5  C   UNL     1      34.679  57.638  46.377  1.00  0.00    +0.020 A 
ATOM      6  C   UNL     1      34.106  58.516  47.319  1.00  0.00    +0.037 A 
ATOM      7  S   UNL     1      33.151  58.084  48.677  1.00  0.00    -0.117 S 
ATOM      8  C   UNL     1      32.882  59.694  49.112  1.00  0.00    +0.110 A 
ATOM      9  C   UNL     1      33.612  60.577  48.333  1.00  0.00    +0.082 A 
ENDROOT
BRANCH   9  10
ATOM     10  C   UNL     1      33.619  62.013  48.610  1.00  0.00    +0.257 C 
ATOM     11  N   UNL     1      34.725  62.547  49.280  1.00  0.00    -0.338 N 
ATOM     12  O   UNL     1      32.644  62.705  48.316  1.00  0.00    -0.269 OA
ATOM     13  C   UNL     1      35.607  61.755  50.138  1.00  0.00    +0.121 C 
ATOM     14  C   UNL     1      34.795  63.983  49.476  1.00  0.00    +0.121 C 
ATOM     15  C   UNL     1      36.054  62.518  51.393  1.00  0.00    +0.041 C 
ATOM     16  C   UNL     1      34.393  64.358  50.899  1.00  0.00    +0.041 C 
ATOM     17  C   UNL     1      34.890  63.349  51.974  1.00  0.00    +0.060 C 
BRANCH  17  18
ATOM     18  N   UNL     1      35.212  64.064  53.240  1.00  0.00    -0.299 NA
ATOM     19  C   UNL     1      34.246  63.736  54.305  1.00  0.00    +0.085 C 
ATOM     20  C   UNL     1      36.581  63.779  53.730  1.00  0.00    +0.103 C 
ATOM     21  C   UNL     1      34.386  64.700  55.483  1.00  0.00    +0.017 C 
ATOM     22  C   UNL     1      36.891  64.295  55.158  1.00  0.00    +0.084 C 
ATOM     23  C   UNL     1      35.803  65.239  55.682  1.00  0.00    +0.021 C 
ATOM     24  C   UNL     1      37.101  63.115  56.087  1.00  0.00    +0.314 C 
ATOM     25  C   UNL     1      38.262  64.977  55.257  1.00  0.00    +0.068 C 
ATOM     26  O   UNL     1      36.225  62.405  56.554  1.00  0.00    -0.252 OA
ATOM     27  O   UNL     1      38.429  62.909  56.328  1.00  0.00    -0.459 OA
ATOM     28  C   UNL     1      39.230  63.862  55.620  1.00  0.00    +0.108 C 
ATOM     29  C   UNL     1      39.858  63.179  54.404  1.00  0.00    +0.056 C 
ATOM     30  C   UNL     1      40.330  64.358  56.557  1.00  0.00    +0.056 C 
ENDBRANCH  17  18
ENDBRANCH   9  10
BRANCH   8  31
ATOM     31  N   UNL     1      32.043  60.041  50.161  1.00  0.00    -0.299 N 
ATOM     32  C   UNL     1      30.713  59.714  50.319  1.00  0.00    +0.319 C 
ATOM     33  O   UNL     1      30.009  59.054  49.567  1.00  0.00    -0.248 OA
ATOM     34  N   UNL     1      30.221  60.251  51.498  1.00  0.00    -0.338 N 
ATOM     35  H   UNL     1      32.402  60.764  50.776  1.00  0.00    +0.172 HD
ATOM     36  H   UNL     1      30.894  60.471  52.216  1.00  0.00    +0.165 HD
BRANCH  34  37
ATOM     37  C   UNL     1      28.861  59.996  51.925  1.00  0.00    +0.114 C 
ATOM     38  C   UNL     1      28.806  59.067  53.124  1.00  0.00    +0.027 C 
ENDBRANCH  34  37
ENDBRANCH   8  31
TORSDOF 4
ENDMDL
MODEL 6
REMARK VINA RESULT:    -8.757      2.992      8.951
REMARK INTER + INTRA:         -11.961
REMARK INTER:                 -10.780
REMARK INTRA:                  -1.181
REMARK UNBOUND:                -1.156
REMARK SMILES CCNC(=O)Nc1sc2ccccc2c1C(=O)N1CCC(N2CCC[C@@]3(C2)CC(C)(C)OC3=O)CC1
REMARK SMILES IDX 14 1 13 2 12 3 11 4 10 5 9 6 8 7 7 8 15 9 16 10 18 11 17 12
REMARK SMILES IDX 19 13 36 14 20 15 35 16 21 17 22 18 23 19 27 20 24 21 26 22
REMARK SMILES IDX 25 23 33 24 28 25 34 26 32 27 29 28 30 29 31 30 6 31 4 32
REMARK SMILES IDX 5 33 3 34 2 37 1 38
REMARK H PARENT 6 35 3 36
REMARK INDEX MAP 1 1 2 2 3 3 4 4 5 5 6 6 7 7 8 8 13 9 14 10 15 11 16 12 17 13
REMARK INDEX MAP 19 14 18 15 20 16 21 17 22 18 23 19 26 20 24 21 27 22 25 23
REMARK INDEX MAP 28 24 31 25 29 26 30 27 32 28 33 29 34 30 9 31 10 32 11 33
REMARK INDEX MAP 12 34 41 35 42 36 35 37 36 38
ROOT
ATOM      1  C   UNL     1      34.813  62.396  48.567  1.00  0.00    +0.007 A 
ATOM      2  C   UNL     1      35.670  63.041  47.636  1.00  0.00    +0.010 A 
ATOM      3  C   UNL     1      36.073  62.396  46.463  1.00  0.00    +0.001 A 
ATOM      4  C   UNL     1      35.632  61.111  46.186  1.00  0.00    +0.002 A 
ATOM      5  C   UNL     1      34.772  60.454  47.068  1.00  0.00    +0.020 A 
ATOM      6  C   UNL     1      34.364  61.112  48.245  1.00  0.00    +0.037 A 
ATOM      7  S   UNL     1      33.291  60.509  49.440  1.00  0.00    -0.117 S 
ATOM      8  C   UNL     1      33.353  61.936  50.344  1.00  0.00    +0.110 A 
ATOM      9  C   UNL     1      34.280  62.834  49.842  1.00  0.00    +0.082 A 
ENDROOT
BRANCH   9  10
ATOM     10  C   UNL     1      34.580  64.088  50.534  1.00  0.00    +0.257 C 
ATOM     11  N   UNL     1      35.843  64.228  51.119  1.00  0.00    -0.338 N 
ATOM     12  O   UNL     1      33.714  64.955  50.647  1.00  0.00    -0.269 OA
ATOM     13  C   UNL     1      36.675  63.094  51.520  1.00  0.00    +0.121 C 
ATOM     14  C   UNL     1      36.193  65.499  51.724  1.00  0.00    +0.121 C 
ATOM     15  C   UNL     1      37.415  63.341  52.843  1.00  0.00    +0.041 C 
ATOM     16  C   UNL     1      36.058  65.435  53.242  1.00  0.00    +0.041 C 
ATOM     17  C   UNL     1      36.506  64.076  53.851  1.00  0.00    +0.060 C 
BRANCH  17  18
ATOM     18  N   UNL     1      37.117  64.290  55.193  1.00  0.00    -0.299 NA
ATOM     19  C   UNL     1      36.100  64.252  56.260  1.00  0.00    +0.085 C 
ATOM     20  C   UNL     1      38.178  63.304  55.506  1.00  0.00    +0.103 C 
ATOM     21  C   UNL     1      36.671  64.784  57.575  1.00  0.00    +0.017 C 
ATOM     22  C   UNL     1      38.681  63.322  56.972  1.00  0.00    +0.084 C 
ATOM     23  C   UNL     1      38.170  64.542  57.745  1.00  0.00    +0.021 C 
ATOM     24  C   UNL     1      38.292  62.024  57.655  1.00  0.00    +0.314 C 
ATOM     25  C   UNL     1      40.210  63.245  57.074  1.00  0.00    +0.068 C 
ATOM     26  O   UNL     1      37.178  61.734  58.060  1.00  0.00    -0.252 OA
ATOM     27  O   UNL     1      39.358  61.175  57.742  1.00  0.00    -0.459 OA
ATOM     28  C   UNL     1      40.524  61.758  57.149  1.00  0.00    +0.108 C 
ATOM     29  C   UNL     1      40.763  61.115  55.782  1.00  0.00    +0.056 C 
ATOM     30  C   UNL     1      41.717  61.483  58.064  1.00  0.00    +0.056 C 
ENDBRANCH  17  18
ENDBRANCH   9  10
BRANCH   8  31
ATOM     31  N   UNL     1      32.569  62.124  51.473  1.00  0.00    -0.299 N 
ATOM     32  C   UNL     1      31.225  61.855  51.619  1.00  0.00    +0.319 C 
ATOM     33  O   UNL     1      30.458  61.397  50.784  1.00  0.00    -0.248 OA
ATOM     34  N   UNL     1      30.804  62.183  52.898  1.00  0.00    -0.338 N 
ATOM     35  H   UNL     1      32.993  62.692  52.198  1.00  0.00    +0.172 HD
ATOM     36  H   UNL     1      31.510  62.219  53.617  1.00  0.00    +0.165 HD
BRANCH  34  37
ATOM     37  C   UNL     1      29.442  61.934  53.323  1.00  0.00    +0.114 C 
ATOM     38  C   UNL     1      29.387  61.171  54.634  1.00  0.00    +0.027 C 
ENDBRANCH  34  37
ENDBRANCH   8  31
TORSDOF 4
ENDMDL
MODEL 7
REMARK VINA RESULT:    -8.500      2.947      9.082
REMARK INTER + INTRA:         -11.644
REMARK INTER:                 -10.516
REMARK INTRA:                  -1.127
REMARK UNBOUND:                -1.156
REMARK SMILES CCNC(=O)Nc1sc2ccccc2c1C(=O)N1CCC(N2CCC[C@@]3(C2)CC(C)(C)OC3=O)CC1
REMARK SMILES IDX 14 1 13 2 12 3 11 4 10 5 9 6 8 7 7 8 15 9 16 10 18 11 17 12
REMARK SMILES IDX 19 13 36 14 20 15 35 16 21 17 22 18 23 19 27 20 24 21 26 22
REMARK SMILES IDX 25 23 33 24 28 25 34 26 32 27 29 28 30 29 31 30 6 31 4 32
REMARK SMILES IDX 5 33 3 34 2 37 1 38
REMARK H PARENT 6 35 3 36
REMARK INDEX MAP 1 1 2 2 3 3 4 4 5 5 6 6 7 7 8 8 13 9 14 10 15 11 16 12 17 13
REMARK INDEX MAP 19 14 18 15 20 16 21 17 22 18 23 19 26 20 24 21 27 22 25 23
REMARK INDEX MAP 28 24 31 25 29 26 30 27 32 28 33 29 34 30 9 31 10 32 11 33
REMARK INDEX MAP 12 34 41 35 42 36 35 37 36 38
ROOT
ATOM      1  C   UNL     1      34.606  62.553  48.568  1.00  0.00    +0.007 A 
ATOM      2  C   UNL     1      35.413  63.244  47.625  1.00  0.00    +0.010 A 
ATOM      3  C   UNL     1      35.918  62.591  46.496  1.00  0.00    +0.001 A 
ATOM      4  C   UNL     1      35.629  61.252  46.277  1.00  0.00    +0.002 A 
ATOM      5  C   UNL     1      34.823  60.548  47.172  1.00  0.00    +0.020 A 
ATOM      6  C   UNL     1      34.311  61.214  48.304  1.00  0.00    +0.037 A 
ATOM      7  S   UNL     1      33.279  60.554  49.504  1.00  0.00    -0.117 S 
ATOM      8  C   UNL     1      33.156  62.021  50.333  1.00  0.00    +0.110 A 
ATOM      9  C   UNL     1      33.992  62.992  49.806  1.00  0.00    +0.082 A 
ENDROOT
BRANCH   9  10
ATOM     10  C   UNL     1      34.132  64.304  50.439  1.00  0.00    +0.257 C 
ATOM     11  N   UNL     1      35.344  64.602  51.071  1.00  0.00    -0.338 N 
ATOM     12  O   UNL     1      33.180  65.083  50.463  1.00  0.00    -0.269 OA
ATOM     13  C   UNL     1      36.263  63.580  51.573  1.00  0.00    +0.121 C 
ATOM     14  C   UNL     1      35.536  65.931  51.618  1.00  0.00    +0.121 C 
ATOM     15  C   UNL     1      36.906  63.969  52.912  1.00  0.00    +0.041 C 
ATOM     16  C   UNL     1      35.332  65.933  53.130  1.00  0.00    +0.041 C 
ATOM     17  C   UNL     1      35.880  64.660  53.835  1.00  0.00    +0.060 C 
BRANCH  17  18
ATOM     18  N   UNL     1      36.398  65.005  55.188  1.00  0.00    -0.299 NA
ATOM     19  C   UNL     1      36.291  63.861  56.113  1.00  0.00    +0.085 C 
ATOM     20  C   UNL     1      37.804  65.472  55.164  1.00  0.00    +0.103 C 
ATOM     21  C   UNL     1      36.518  64.306  57.558  1.00  0.00    +0.017 C 
ATOM     22  C   UNL     1      38.474  65.613  56.554  1.00  0.00    +0.084 C 
ATOM     23  C   UNL     1      37.463  65.498  57.700  1.00  0.00    +0.021 C 
ATOM     24  C   UNL     1      39.586  64.588  56.686  1.00  0.00    +0.314 C 
ATOM     25  C   UNL     1      39.275  66.914  56.696  1.00  0.00    +0.068 C 
ATOM     26  O   UNL     1      39.439  63.395  56.899  1.00  0.00    -0.252 OA
ATOM     27  O   UNL     1      40.810  65.164  56.503  1.00  0.00    -0.459 OA
ATOM     28  C   UNL     1      40.680  66.564  56.228  1.00  0.00    +0.108 C 
ATOM     29  C   UNL     1      40.903  66.801  54.733  1.00  0.00    +0.056 C 
ATOM     30  C   UNL     1      41.741  67.313  57.033  1.00  0.00    +0.056 C 
ENDBRANCH  17  18
ENDBRANCH   9  10
BRANCH   8  31
ATOM     31  N   UNL     1      32.325  62.176  51.433  1.00  0.00    -0.299 N 
ATOM     32  C   UNL     1      31.068  61.641  51.620  1.00  0.00    +0.319 C 
ATOM     33  O   UNL     1      30.437  60.925  50.856  1.00  0.00    -0.248 OA
ATOM     34  N   UNL     1      30.557  62.029  52.848  1.00  0.00    -0.338 N 
ATOM     35  H   UNL     1      32.600  62.910  52.077  1.00  0.00    +0.172 HD
ATOM     36  H   UNL     1      31.223  62.310  53.553  1.00  0.00    +0.165 HD
BRANCH  34  37
ATOM     37  C   UNL     1      29.272  61.546  53.309  1.00  0.00    +0.114 C 
ATOM     38  C   UNL     1      29.361  60.930  54.694  1.00  0.00    +0.027 C 
ENDBRANCH  34  37
ENDBRANCH   8  31
TORSDOF 4
ENDMDL
MODEL 8
REMARK VINA RESULT:    -8.339      1.866      4.458
REMARK INTER + INTRA:         -11.446
REMARK INTER:                 -11.135
REMARK INTRA:                  -0.311
REMARK UNBOUND:                -1.156
REMARK SMILES CCNC(=O)Nc1sc2ccccc2c1C(=O)N1CCC(N2CCC[C@@]3(C2)CC(C)(C)OC3=O)CC1
REMARK SMILES IDX 14 1 13 2 12 3 11 4 10 5 9 6 8 7 7 8 15 9 16 10 18 11 17 12
REMARK SMILES IDX 19 13 36 14 20 15 35 16 21 17 22 18 23 19 27 20 24 21 26 22
REMARK SMILES IDX 25 23 33 24 28 25 34 26 32 27 29 28 30 29 31 30 6 31 4 32
REMARK SMILES IDX 5 33 3 34 2 37 1 38
REMARK H PARENT 6 35 3 36
REMARK INDEX MAP 1 1 2 2 3 3 4 4 5 5 6 6 7 7 8 8 13 9 14 10 15 11 16 12 17 13
REMARK INDEX MAP 19 14 18 15 20 16 21 17 22 18 23 19 26 20 24 21 27 22 25 23
REMARK INDEX MAP 28 24 31 25 29 26 30 27 32 28 33 29 34 30 9 31 10 32 11 33
REMARK INDEX MAP 12 34 41 35 42 36 35 37 36 38
ROOT
ATOM      1  C   UNL     1      38.737  63.688  56.661  1.00  0.00    +0.007 A 
ATOM      2  C   UNL     1      39.045  62.318  56.444  1.00  0.00    +0.010 A 
ATOM      3  C   UNL     1      39.402  61.485  57.508  1.00  0.00    +0.001 A 
ATOM      4  C   UNL     1      39.455  61.986  58.800  1.00  0.00    +0.002 A 
ATOM      5  C   UNL     1      39.139  63.322  59.053  1.00  0.00    +0.020 A 
ATOM      6  C   UNL     1      38.772  64.155  57.977  1.00  0.00    +0.037 A 
ATOM      7  S   UNL     1      38.313  65.805  58.066  1.00  0.00    -0.117 S 
ATOM      8  C   UNL     1      38.003  65.901  56.407  1.00  0.00    +0.110 A 
ATOM      9  C   UNL     1      38.366  64.744  55.739  1.00  0.00    +0.082 A 
ENDROOT
BRANCH   9  10
ATOM     10  C   UNL     1      38.291  64.650  54.281  1.00  0.00    +0.257 C 
ATOM     11  N   UNL     1      37.071  64.947  53.665  1.00  0.00    -0.338 N 
ATOM     12  O   UNL     1      39.263  64.255  53.636  1.00  0.00    -0.269 OA
ATOM     13  C   UNL     1      35.781  64.859  54.350  1.00  0.00    +0.121 C 
ATOM     14  C   UNL     1      37.004  64.954  52.216  1.00  0.00    +0.121 C 
ATOM     15  C   UNL     1      34.670  64.298  53.451  1.00  0.00    +0.041 C 
ATOM     16  C   UNL     1      36.373  63.667  51.694  1.00  0.00    +0.041 C 
ATOM     17  C   UNL     1      35.203  63.144  52.575  1.00  0.00    +0.060 C 
BRANCH  17  18
ATOM     18  N   UNL     1      34.173  62.487  51.723  1.00  0.00    -0.299 NA
ATOM     19  C   UNL     1      32.960  63.318  51.607  1.00  0.00    +0.085 C 
ATOM     20  C   UNL     1      34.667  62.167  50.363  1.00  0.00    +0.103 C 
ATOM     21  C   UNL     1      31.804  62.514  51.012  1.00  0.00    +0.017 C 
ATOM     22  C   UNL     1      33.581  61.708  49.359  1.00  0.00    +0.084 C 
ATOM     23  C   UNL     1      32.243  61.415  50.046  1.00  0.00    +0.021 C 
ATOM     24  C   UNL     1      33.431  62.748  48.265  1.00  0.00    +0.314 C 
ATOM     25  C   UNL     1      34.017  60.492  48.531  1.00  0.00    +0.068 C 
ATOM     26  O   UNL     1      32.855  63.819  48.369  1.00  0.00    -0.252 OA
ATOM     27  O   UNL     1      34.061  62.352  47.120  1.00  0.00    -0.459 OA
ATOM     28  C   UNL     1      34.687  61.077  47.297  1.00  0.00    +0.108 C 
ATOM     29  C   UNL     1      36.195  61.280  47.460  1.00  0.00    +0.056 C 
ATOM     30  C   UNL     1      34.412  60.229  46.055  1.00  0.00    +0.056 C 
ENDBRANCH  17  18
ENDBRANCH   9  10
BRANCH   8  31
ATOM     31  N   UNL     1      37.476  67.044  55.824  1.00  0.00    -0.299 N 
ATOM     32  C   UNL     1      38.121  67.941  54.999  1.00  0.00    +0.319 C 
ATOM     33  O   UNL     1      39.282  67.908  54.618  1.00  0.00    -0.248 OA
ATOM     34  N   UNL     1      37.257  68.957  54.623  1.00  0.00    -0.338 N 
ATOM     35  H   UNL     1      36.582  67.343  56.197  1.00  0.00    +0.172 HD
ATOM     36  H   UNL     1      36.269  68.758  54.670  1.00  0.00    +0.165 HD
BRANCH  34  37
ATOM     37  C   UNL     1      37.677  69.994  53.703  1.00  0.00    +0.114 C 
ATOM     38  C   UNL     1      38.297  71.176  54.426  1.00  0.00    +0.027 C 
ENDBRANCH  34  37
ENDBRANCH   8  31
TORSDOF 4
ENDMDL
MODEL 9
REMARK VINA RESULT:    -8.335      1.792      1.995
REMARK INTER + INTRA:         -11.441
REMARK INTER:                 -10.288
REMARK INTRA:                  -1.153
REMARK UNBOUND:                -1.156
REMARK SMILES CCNC(=O)Nc1sc2ccccc2c1C(=O)N1CCC(N2CCC[C@@]3(C2)CC(C)(C)OC3=O)CC1
REMARK SMILES IDX 14 1 13 2 12 3 11 4 10 5 9 6 8 7 7 8 15 9 16 10 18 11 17 12
REMARK SMILES IDX 19 13 36 14 20 15 35 16 21 17 22 18 23 19 27 20 24 21 26 22
REMARK SMILES IDX 25 23 33 24 28 25 34 26 32 27 29 28 30 29 31 30 6 31 4 32
REMARK SMILES IDX 5 33 3 34 2 37 1 38
REMARK H PARENT 6 35 3 36
REMARK INDEX MAP 1 1 2 2 3 3 4 4 5 5 6 6 7 7 8 8 13 9 14 10 15 11 16 12 17 13
REMARK INDEX MAP 19 14 18 15 20 16 21 17 22 18 23 19 26 20 24 21 27 22 25 23
REMARK INDEX MAP 28 24 31 25 29 26 30 27 32 28 33 29 34 30 9 31 10 32 11 33
REMARK INDEX MAP 12 34 41 35 42 36 35 37 36 38
ROOT
ATOM      1  C   UNL     1      39.073  67.361  54.305  1.00  0.00    +0.007 A 
ATOM      2  C   UNL     1      38.091  67.678  53.329  1.00  0.00    +0.010 A 
ATOM      3  C   UNL     1      38.357  68.607  52.318  1.00  0.00    +0.001 A 
ATOM      4  C   UNL     1      39.593  69.230  52.249  1.00  0.00    +0.002 A 
ATOM      5  C   UNL     1      40.589  68.927  53.180  1.00  0.00    +0.020 A 
ATOM      6  C   UNL     1      40.318  67.985  54.191  1.00  0.00    +0.037 A 
ATOM      7  S   UNL     1      41.400  67.441  55.406  1.00  0.00    -0.117 S 
ATOM      8  C   UNL     1      40.280  66.346  56.040  1.00  0.00    +0.110 A 
ATOM      9  C   UNL     1      39.036  66.465  55.444  1.00  0.00    +0.082 A 
ENDROOT
BRANCH   9  10
ATOM     10  C   UNL     1      37.886  65.694  55.917  1.00  0.00    +0.257 C 
ATOM     11  N   UNL     1      37.614  64.471  55.294  1.00  0.00    -0.338 N 
ATOM     12  O   UNL     1      37.152  66.152  56.792  1.00  0.00    -0.269 OA
ATOM     13  C   UNL     1      38.053  64.144  53.937  1.00  0.00    +0.121 C 
ATOM     14  C   UNL     1      36.539  63.648  55.814  1.00  0.00    +0.121 C 
ATOM     15  C   UNL     1      36.998  63.355  53.148  1.00  0.00    +0.041 C 
ATOM     16  C   UNL     1      35.285  63.785  54.955  1.00  0.00    +0.041 C 
ATOM     17  C   UNL     1      35.581  63.897  53.433  1.00  0.00    +0.060 C 
BRANCH  17  18
ATOM     18  N   UNL     1      34.498  63.240  52.649  1.00  0.00    -0.299 NA
ATOM     19  C   UNL     1      33.203  63.918  52.845  1.00  0.00    +0.085 C 
ATOM     20  C   UNL     1      34.793  63.181  51.197  1.00  0.00    +0.103 C 
ATOM     21  C   UNL     1      32.055  63.064  52.306  1.00  0.00    +0.017 C 
ATOM     22  C   UNL     1      33.610  62.732  50.303  1.00  0.00    +0.084 C 
ATOM     23  C   UNL     1      32.441  62.177  51.124  1.00  0.00    +0.021 C 
ATOM     24  C   UNL     1      33.176  63.889  49.423  1.00  0.00    +0.314 C 
ATOM     25  C   UNL     1      34.028  61.710  49.237  1.00  0.00    +0.068 C 
ATOM     26  O   UNL     1      32.516  64.852  49.779  1.00  0.00    -0.252 OA
ATOM     27  O   UNL     1      33.646  63.741  48.149  1.00  0.00    -0.459 OA
ATOM     28  C   UNL     1      34.422  62.544  48.028  1.00  0.00    +0.108 C 
ATOM     29  C   UNL     1      35.907  62.913  47.998  1.00  0.00    +0.056 C 
ATOM     30  C   UNL     1      34.037  61.851  46.721  1.00  0.00    +0.056 C 
ENDBRANCH  17  18
ENDBRANCH   9  10
BRANCH   8  31
ATOM     31  N   UNL     1      40.608  65.472  57.066  1.00  0.00    -0.299 N 
ATOM     32  C   UNL     1      40.965  65.789  58.360  1.00  0.00    +0.319 C 
ATOM     33  O   UNL     1      41.063  66.901  58.859  1.00  0.00    -0.248 OA
ATOM     34  N   UNL     1      41.222  64.636  59.085  1.00  0.00    -0.338 N 
ATOM     35  H   UNL     1      40.782  64.516  56.776  1.00  0.00    +0.172 HD
ATOM     36  H   UNL     1      40.805  63.781  58.749  1.00  0.00    +0.165 HD
BRANCH  34  37
ATOM     37  C   UNL     1      41.557  64.698  60.492  1.00  0.00    +0.114 C 
ATOM     38  C   UNL     1      40.437  64.163  61.366  1.00  0.00    +0.027 C 
ENDBRANCH  34  37
ENDBRANCH   8  31
TORSDOF 4
ENDMDL
MODEL 10
REMARK VINA RESULT:    -8.119      3.832      8.261
REMARK INTER + INTRA:         -11.174
REMARK INTER:                  -9.879
REMARK INTRA:                  -1.294
REMARK UNBOUND:                -1.156
REMARK SMILES CCNC(=O)Nc1sc2ccccc2c1C(=O)N1CCC(N2CCC[C@@]3(C2)CC(C)(C)OC3=O)CC1
REMARK SMILES IDX 14 1 13 2 12 3 11 4 10 5 9 6 8 7 7 8 15 9 16 10 18 11 17 12
REMARK SMILES IDX 19 13 36 14 20 15 35 16 21 17 22 18 23 19 27 20 24 21 26 22
REMARK SMILES IDX 25 23 33 24 28 25 34 26 32 27 29 28 30 29 31 30 6 31 4 32
REMARK SMILES IDX 5 33 3 34 2 37 1 38
REMARK H PARENT 6 35 3 36
REMARK INDEX MAP 1 1 2 2 3 3 4 4 5 5 6 6 7 7 8 8 13 9 14 10 15 11 16 12 17 13
REMARK INDEX MAP 19 14 18 15 20 16 21 17 22 18 23 19 26 20 24 21 27 22 25 23
REMARK INDEX MAP 28 24 31 25 29 26 30 27 32 28 33 29 34 30 9 31 10 32 11 33
REMARK INDEX MAP 12 34 41 35 42 36 35 37 36 38
ROOT
ATOM      1  C   UNL     1      36.707  63.762  53.685  1.00  0.00    +0.007 A 
ATOM      2  C   UNL     1      36.789  64.351  52.396  1.00  0.00    +0.010 A 
ATOM      3  C   UNL     1      35.742  64.222  51.479  1.00  0.00    +0.001 A 
ATOM      4  C   UNL     1      34.597  63.518  51.820  1.00  0.00    +0.002 A 
ATOM      5  C   UNL     1      34.473  62.943  53.086  1.00  0.00    +0.020 A 
ATOM      6  C   UNL     1      35.529  63.083  54.009  1.00  0.00    +0.037 A 
ATOM      7  S   UNL     1      35.572  62.492  55.619  1.00  0.00    -0.117 S 
ATOM      8  C   UNL     1      37.089  63.172  55.923  1.00  0.00    +0.110 A 
ATOM      9  C   UNL     1      37.649  63.734  54.788  1.00  0.00    +0.082 A 
ENDROOT
BRANCH   9  10
ATOM     10  C   UNL     1      39.007  64.278  54.795  1.00  0.00    +0.257 C 
ATOM     11  N   UNL     1      39.177  65.614  55.173  1.00  0.00    -0.338 N 
ATOM     12  O   UNL     1      39.951  63.587  54.414  1.00  0.00    -0.269 OA
ATOM     13  C   UNL     1      38.117  66.619  55.079  1.00  0.00    +0.121 C 
ATOM     14  C   UNL     1      40.523  66.142  55.280  1.00  0.00    +0.121 C 
ATOM     15  C   UNL     1      38.637  67.987  54.616  1.00  0.00    +0.041 C 
ATOM     16  C   UNL     1      40.882  66.974  54.053  1.00  0.00    +0.041 C 
ATOM     17  C   UNL     1      39.700  67.824  53.508  1.00  0.00    +0.060 C 
BRANCH  17  18
ATOM     18  N   UNL     1      40.206  69.107  52.944  1.00  0.00    -0.299 NA
ATOM     19  C   UNL     1      40.338  69.034  51.477  1.00  0.00    +0.085 C 
ATOM     20  C   UNL     1      39.351  70.266  53.292  1.00  0.00    +0.103 C 
ATOM     21  C   UNL     1      41.148  70.217  50.945  1.00  0.00    +0.017 C 
ATOM     22  C   UNL     1      39.685  71.579  52.540  1.00  0.00    +0.084 C 
ATOM     23  C   UNL     1      41.012  71.490  51.779  1.00  0.00    +0.021 C 
ATOM     24  C   UNL     1      38.535  71.940  51.619  1.00  0.00    +0.314 C 
ATOM     25  C   UNL     1      39.698  72.804  53.465  1.00  0.00    +0.068 C 
ATOM     26  O   UNL     1      38.283  71.413  50.547  1.00  0.00    -0.252 OA
ATOM     27  O   UNL     1      37.769  72.936  52.154  1.00  0.00    -0.459 OA
ATOM     28  C   UNL     1      38.272  73.333  53.435  1.00  0.00    +0.108 C 
ATOM     29  C   UNL     1      37.379  72.743  54.527  1.00  0.00    +0.056 C 
ATOM     30  C   UNL     1      38.240  74.860  53.512  1.00  0.00    +0.056 C 
ENDBRANCH  17  18
ENDBRANCH   9  10
BRANCH   8  31
ATOM     31  N   UNL     1      37.680  63.117  57.177  1.00  0.00    -0.299 N 
ATOM     32  C   UNL     1      38.423  62.086  57.712  1.00  0.00    +0.319 C 
ATOM     33  O   UNL     1      38.709  61.018  57.189  1.00  0.00    -0.248 OA
ATOM     34  N   UNL     1      38.839  62.407  58.994  1.00  0.00    -0.338 N 
ATOM     35  H   UNL     1      37.373  63.831  57.827  1.00  0.00    +0.172 HD
ATOM     36  H   UNL     1      38.878  63.386  59.231  1.00  0.00    +0.165 HD
BRANCH  34  37
ATOM     37  C   UNL     1      39.690  61.511  59.750  1.00  0.00    +0.114 C 
ATOM     38  C   UNL     1      40.905  62.224  60.315  1.00  0.00    +0.027 C 
ENDBRANCH  34  37
ENDBRANCH   8  31
TORSDOF 4
ENDMDL
MODEL 11
REMARK VINA RESULT:    -7.873      3.773      8.910
REMARK INTER + INTRA:         -10.870
REMARK INTER:                  -9.576
REMARK INTRA:                  -1.294
REMARK UNBOUND:                -1.156
REMARK SMILES CCNC(=O)Nc1sc2ccccc2c1C(=O)N1CCC(N2CCC[C@@]3(C2)CC(C)(C)OC3=O)CC1
REMARK SMILES IDX 14 1 13 2 12 3 11 4 10 5 9 6 8 7 7 8 15 9 16 10 18 11 17 12
REMARK SMILES IDX 19 13 36 14 20 15 35 16 21 17 22 18 23 19 27 20 24 21 26 22
REMARK SMILES IDX 25 23 33 24 28 25 34 26 32 27 29 28 30 29 31 30 6 31 4 32
REMARK SMILES IDX 5 33 3 34 2 37 1 38
REMARK H PARENT 6 35 3 36
REMARK INDEX MAP 1 1 2 2 3 3 4 4 5 5 6 6 7 7 8 8 13 9 14 10 15 11 16 12 17 13
REMARK INDEX MAP 19 14 18 15 20 16 21 17 22 18 23 19 26 20 24 21 27 22 25 23
REMARK INDEX MAP 28 24 31 25 29 26 30 27 32 28 33 29 34 30 9 31 10 32 11 33
REMARK INDEX MAP 12 34 41 35 42 36 35 37 36 38
ROOT
ATOM      1  C   UNL     1      36.613  63.936  53.599  1.00  0.00    +0.007 A 
ATOM      2  C   UNL     1      36.591  64.617  52.353  1.00  0.00    +0.010 A 
ATOM      3  C   UNL     1      35.559  64.400  51.434  1.00  0.00    +0.001 A 
ATOM      4  C   UNL     1      34.533  63.517  51.732  1.00  0.00    +0.002 A 
ATOM      5  C   UNL     1      34.511  62.846  52.956  1.00  0.00    +0.020 A 
ATOM      6  C   UNL     1      35.550  63.074  53.881  1.00  0.00    +0.037 A 
ATOM      7  S   UNL     1      35.700  62.389  55.446  1.00  0.00    -0.117 S 
ATOM      8  C   UNL     1      37.108  63.258  55.790  1.00  0.00    +0.110 A 
ATOM      9  C   UNL     1      37.565  63.971  54.693  1.00  0.00    +0.082 A 
ENDROOT
BRANCH   9  10
ATOM     10  C   UNL     1      38.830  64.703  54.732  1.00  0.00    +0.257 C 
ATOM     11  N   UNL     1      38.805  66.037  55.152  1.00  0.00    -0.338 N 
ATOM     12  O   UNL     1      39.866  64.167  54.339  1.00  0.00    -0.269 OA
ATOM     13  C   UNL     1      37.612  66.881  55.080  1.00  0.00    +0.121 C 
ATOM     14  C   UNL     1      40.061  66.748  55.291  1.00  0.00    +0.121 C 
ATOM     15  C   UNL     1      37.933  68.325  54.666  1.00  0.00    +0.041 C 
ATOM     16  C   UNL     1      40.304  67.662  54.094  1.00  0.00    +0.041 C 
ATOM     17  C   UNL     1      39.015  68.352  53.564  1.00  0.00    +0.060 C 
BRANCH  17  18
ATOM     18  N   UNL     1      39.334  69.712  53.046  1.00  0.00    -0.299 NA
ATOM     19  C   UNL     1      38.111  70.499  52.807  1.00  0.00    +0.085 C 
ATOM     20  C   UNL     1      40.228  70.476  53.947  1.00  0.00    +0.103 C 
ATOM     21  C   UNL     1      38.420  71.751  51.986  1.00  0.00    +0.017 C 
ATOM     22  C   UNL     1      40.402  71.973  53.587  1.00  0.00    +0.084 C 
ATOM     23  C   UNL     1      39.825  72.308  52.208  1.00  0.00    +0.021 C 
ATOM     24  C   UNL     1      39.781  72.829  54.676  1.00  0.00    +0.314 C 
ATOM     25  C   UNL     1      41.863  72.436  53.667  1.00  0.00    +0.068 C 
ATOM     26  O   UNL     1      38.588  73.026  54.839  1.00  0.00    -0.252 OA
ATOM     27  O   UNL     1      40.739  73.349  55.498  1.00  0.00    -0.459 OA
ATOM     28  C   UNL     1      42.044  72.920  55.097  1.00  0.00    +0.108 C 
ATOM     29  C   UNL     1      42.526  71.828  56.055  1.00  0.00    +0.056 C 
ATOM     30  C   UNL     1      42.988  74.120  55.166  1.00  0.00    +0.056 C 
ENDBRANCH  17  18
ENDBRANCH   9  10
BRANCH   8  31
ATOM     31  N   UNL     1      37.719  63.205  57.034  1.00  0.00    -0.299 N 
ATOM     32  C   UNL     1      38.399  62.143  57.592  1.00  0.00    +0.319 C 
ATOM     33  O   UNL     1      38.598  61.040  57.103  1.00  0.00    -0.248 OA
ATOM     34  N   UNL     1      38.862  62.478  58.854  1.00  0.00    -0.338 N 
ATOM     35  H   UNL     1      37.475  63.961  57.664  1.00  0.00    +0.172 HD
ATOM     36  H   UNL     1      38.974  63.460  59.055  1.00  0.00    +0.165 HD
BRANCH  34  37
ATOM     37  C   UNL     1      39.663  61.550  59.626  1.00  0.00    +0.114 C 
ATOM     38  C   UNL     1      41.142  61.886  59.560  1.00  0.00    +0.027 C 
ENDBRANCH  34  37
ENDBRANCH   8  31
TORSDOF 4
ENDMDL
MODEL 12
REMARK VINA RESULT:    -7.718      4.111      6.909
REMARK INTER + INTRA:         -10.680
REMARK INTER:                  -9.199
REMARK INTRA:                  -1.480
REMARK UNBOUND:                -1.156
REMARK SMILES CCNC(=O)Nc1sc2ccccc2c1C(=O)N1CCC(N2CCC[C@@]3(C2)CC(C)(C)OC3=O)CC1
REMARK SMILES IDX 14 1 13 2 12 3 11 4 10 5 9 6 8 7 7 8 15 9 16 10 18 11 17 12
REMARK SMILES IDX 19 13 36 14 20 15 35 16 21 17 22 18 23 19 27 20 24 21 26 22
REMARK SMILES IDX 25 23 33 24 28 25 34 26 32 27 29 28 30 29 31 30 6 31 4 32
REMARK SMILES IDX 5 33 3 34 2 37 1 38
REMARK H PARENT 6 35 3 36
REMARK INDEX MAP 1 1 2 2 3 3 4 4 5 5 6 6 7 7 8 8 13 9 14 10 15 11 16 12 17 13
REMARK INDEX MAP 19 14 18 15 20 16 21 17 22 18 23 19 26 20 24 21 27 22 25 23
REMARK INDEX MAP 28 24 31 25 29 26 30 27 32 28 33 29 34 30 9 31 10 32 11 33
REMARK INDEX MAP 12 34 41 35 42 36 35 37 36 38
ROOT
ATOM      1  C   UNL     1      42.011  70.533  53.670  1.00  0.00    +0.007 A 
ATOM      2  C   UNL     1      41.566  71.513  54.597  1.00  0.00    +0.010 A 
ATOM      3  C   UNL     1      42.479  72.255  55.352  1.00  0.00    +0.001 A 
ATOM      4  C   UNL     1      43.842  72.048  55.201  1.00  0.00    +0.002 A 
ATOM      5  C   UNL     1      44.316  71.106  54.285  1.00  0.00    +0.020 A 
ATOM      6  C   UNL     1      43.390  70.368  53.521  1.00  0.00    +0.037 A 
ATOM      7  S   UNL     1      43.751  69.196  52.322  1.00  0.00    -0.117 S 
ATOM      8  C   UNL     1      42.123  68.948  51.945  1.00  0.00    +0.110 A 
ATOM      9  C   UNL     1      41.277  69.634  52.800  1.00  0.00    +0.082 A 
ENDROOT
BRANCH   9  10
ATOM     10  C   UNL     1      39.824  69.474  52.729  1.00  0.00    +0.257 C 
ATOM     11  N   UNL     1      39.175  68.878  53.815  1.00  0.00    -0.338 N 
ATOM     12  O   UNL     1      39.216  69.797  51.709  1.00  0.00    -0.269 OA
ATOM     13  C   UNL     1      39.843  67.982  54.760  1.00  0.00    +0.121 C 
ATOM     14  C   UNL     1      37.727  68.799  53.804  1.00  0.00    +0.121 C 
ATOM     15  C   UNL     1      38.956  66.804  55.188  1.00  0.00    +0.041 C 
ATOM     16  C   UNL     1      37.260  67.401  53.411  1.00  0.00    +0.041 C 
ATOM     17  C   UNL     1      38.147  66.262  53.989  1.00  0.00    +0.060 C 
BRANCH  17  18
ATOM     18  N   UNL     1      37.314  65.066  54.295  1.00  0.00    -0.299 NA
ATOM     19  C   UNL     1      36.842  65.082  55.692  1.00  0.00    +0.085 C 
ATOM     20  C   UNL     1      36.144  64.934  53.395  1.00  0.00    +0.103 C 
ATOM     21  C   UNL     1      36.269  63.721  56.089  1.00  0.00    +0.017 C 
ATOM     22  C   UNL     1      35.112  63.856  53.812  1.00  0.00    +0.084 C 
ATOM     23  C   UNL     1      35.639  62.950  54.930  1.00  0.00    +0.021 C 
ATOM     24  C   UNL     1      33.810  64.528  54.204  1.00  0.00    +0.314 C 
ATOM     25  C   UNL     1      34.640  63.000  52.629  1.00  0.00    +0.068 C 
ATOM     26  O   UNL     1      33.594  65.114  55.254  1.00  0.00    -0.252 OA
ATOM     27  O   UNL     1      32.884  64.428  53.206  1.00  0.00    -0.459 OA
ATOM     28  C   UNL     1      33.423  63.728  52.079  1.00  0.00    +0.108 C 
ATOM     29  C   UNL     1      33.760  64.738  50.981  1.00  0.00    +0.056 C 
ATOM     30  C   UNL     1      32.366  62.748  51.570  1.00  0.00    +0.056 C 
ENDBRANCH  17  18
ENDBRANCH   9  10
BRANCH   8  31
ATOM     31  N   UNL     1      41.727  68.115  50.908  1.00  0.00    -0.299 N 
ATOM     32  C   UNL     1      41.627  68.428  49.569  1.00  0.00    +0.319 C 
ATOM     33  O   UNL     1      41.867  69.499  49.029  1.00  0.00    -0.248 OA
ATOM     34  N   UNL     1      41.193  67.327  48.849  1.00  0.00    -0.338 N 
ATOM     35  H   UNL     1      41.290  67.248  51.199  1.00  0.00    +0.172 HD
ATOM     36  H   UNL     1      41.343  66.420  49.264  1.00  0.00    +0.165 HD
BRANCH  34  37
ATOM     37  C   UNL     1      41.067  67.379  47.407  1.00  0.00    +0.114 C 
ATOM     38  C   UNL     1      41.344  66.033  46.763  1.00  0.00    +0.027 C 
ENDBRANCH  34  37
ENDBRANCH   8  31
TORSDOF 4
ENDMDL
MODEL 13
REMARK VINA RESULT:    -7.647      2.385      4.754
REMARK INTER + INTRA:         -10.592
REMARK INTER:                  -9.706
REMARK INTRA:                  -0.885
REMARK UNBOUND:                -1.156
REMARK SMILES CCNC(=O)Nc1sc2ccccc2c1C(=O)N1CCC(N2CCC[C@@]3(C2)CC(C)(C)OC3=O)CC1
REMARK SMILES IDX 14 1 13 2 12 3 11 4 10 5 9 6 8 7 7 8 15 9 16 10 18 11 17 12
REMARK SMILES IDX 19 13 36 14 20 15 35 16 21 17 22 18 23 19 27 20 24 21 26 22
REMARK SMILES IDX 25 23 33 24 28 25 34 26 32 27 29 28 30 29 31 30 6 31 4 32
REMARK SMILES IDX 5 33 3 34 2 37 1 38
REMARK H PARENT 6 35 3 36
REMARK INDEX MAP 1 1 2 2 3 3 4 4 5 5 6 6 7 7 8 8 13 9 14 10 15 11 16 12 17 13
REMARK INDEX MAP 19 14 18 15 20 16 21 17 22 18 23 19 26 20 24 21 27 22 25 23
REMARK INDEX MAP 28 24 31 25 29 26 30 27 32 28 33 29 34 30 9 31 10 32 11 33
REMARK INDEX MAP 12 34 41 35 42 36 35 37 36 38
ROOT
ATOM      1  C   UNL     1      37.789  65.215  55.674  1.00  0.00    +0.007 A 
ATOM      2  C   UNL     1      37.291  64.191  56.523  1.00  0.00    +0.010 A 
ATOM      3  C   UNL     1      38.103  63.612  57.504  1.00  0.00    +0.001 A 
ATOM      4  C   UNL     1      39.413  64.038  57.667  1.00  0.00    +0.002 A 
ATOM      5  C   UNL     1      39.929  65.056  56.863  1.00  0.00    +0.020 A 
ATOM      6  C   UNL     1      39.104  65.640  55.882  1.00  0.00    +0.037 A 
ATOM      7  S   UNL     1      39.520  66.921  54.819  1.00  0.00    -0.117 S 
ATOM      8  C   UNL     1      37.977  66.973  54.133  1.00  0.00    +0.110 A 
ATOM      9  C   UNL     1      37.166  65.946  54.588  1.00  0.00    +0.082 A 
ENDROOT
BRANCH   9  10
ATOM     10  C   UNL     1      35.826  65.731  54.041  1.00  0.00    +0.257 C 
ATOM     11  N   UNL     1      35.505  64.453  53.574  1.00  0.00    -0.338 N 
ATOM     12  O   UNL     1      35.041  66.674  53.940  1.00  0.00    -0.269 OA
ATOM     13  C   UNL     1      36.507  63.480  53.137  1.00  0.00    +0.121 C 
ATOM     14  C   UNL     1      34.152  64.196  53.118  1.00  0.00    +0.121 C 
ATOM     15  C   UNL     1      36.058  62.680  51.905  1.00  0.00    +0.041 C 
ATOM     16  C   UNL     1      34.077  64.218  51.595  1.00  0.00    +0.041 C 
ATOM     17  C   UNL     1      35.318  63.589  50.900  1.00  0.00    +0.060 C 
BRANCH  17  18
ATOM     18  N   UNL     1      34.912  62.911  49.637  1.00  0.00    -0.299 NA
ATOM     19  C   UNL     1      33.803  63.624  48.976  1.00  0.00    +0.085 C 
ATOM     20  C   UNL     1      36.031  62.768  48.676  1.00  0.00    +0.103 C 
ATOM     21  C   UNL     1      33.186  62.766  47.872  1.00  0.00    +0.017 C 
ATOM     22  C   UNL     1      35.623  62.295  47.257  1.00  0.00    +0.084 C 
ATOM     23  C   UNL     1      34.172  61.808  47.204  1.00  0.00    +0.021 C 
ATOM     24  C   UNL     1      35.877  63.411  46.261  1.00  0.00    +0.314 C 
ATOM     25  C   UNL     1      36.557  61.209  46.705  1.00  0.00    +0.068 C 
ATOM     26  O   UNL     1      35.185  64.405  46.108  1.00  0.00    -0.252 OA
ATOM     27  O   UNL     1      37.020  63.186  45.550  1.00  0.00    -0.459 OA
ATOM     28  C   UNL     1      37.649  61.969  45.967  1.00  0.00    +0.108 C 
ATOM     29  C   UNL     1      38.856  62.306  46.844  1.00  0.00    +0.056 C 
ATOM     30  C   UNL     1      38.112  61.214  44.721  1.00  0.00    +0.056 C 
ENDBRANCH  17  18
ENDBRANCH   9  10
BRANCH   8  31
ATOM     31  N   UNL     1      37.622  67.932  53.196  1.00  0.00    -0.299 N 
ATOM     32  C   UNL     1      38.399  68.443  52.178  1.00  0.00    +0.319 C 
ATOM     33  O   UNL     1      39.553  68.151  51.898  1.00  0.00    -0.248 OA
ATOM     34  N   UNL     1      37.687  69.388  51.457  1.00  0.00    -0.338 N 
ATOM     35  H   UNL     1      36.768  68.439  53.405  1.00  0.00    +0.172 HD
ATOM     36  H   UNL     1      36.681  69.337  51.502  1.00  0.00    +0.165 HD
BRANCH  34  37
ATOM     37  C   UNL     1      38.263  70.029  50.293  1.00  0.00    +0.114 C 
ATOM     38  C   UNL     1      38.693  71.455  50.583  1.00  0.00    +0.027 C 
ENDBRANCH  34  37
ENDBRANCH   8  31
TORSDOF 4
ENDMDL
MODEL 14
REMARK VINA RESULT:    -7.585      4.132      6.643
REMARK INTER + INTRA:         -10.515
REMARK INTER:                  -9.422
REMARK INTRA:                  -1.092
REMARK UNBOUND:                -1.156
REMARK SMILES CCNC(=O)Nc1sc2ccccc2c1C(=O)N1CCC(N2CCC[C@@]3(C2)CC(C)(C)OC3=O)CC1
REMARK SMILES IDX 14 1 13 2 12 3 11 4 10 5 9 6 8 7 7 8 15 9 16 10 18 11 17 12
REMARK SMILES IDX 19 13 36 14 20 15 35 16 21 17 22 18 23 19 27 20 24 21 26 22
REMARK SMILES IDX 25 23 33 24 28 25 34 26 32 27 29 28 30 29 31 30 6 31 4 32
REMARK SMILES IDX 5 33 3 34 2 37 1 38
REMARK H PARENT 6 35 3 36
REMARK INDEX MAP 1 1 2 2 3 3 4 4 5 5 6 6 7 7 8 8 13 9 14 10 15 11 16 12 17 13
REMARK INDEX MAP 19 14 18 15 20 16 21 17 22 18 23 19 26 20 24 21 27 22 25 23
REMARK INDEX MAP 28 24 31 25 29 26 30 27 32 28 33 29 34 30 9 31 10 32 11 33
REMARK INDEX MAP 12 34 41 35 42 36 35 37 36 38
ROOT
ATOM      1  C   UNL     1      34.865  65.105  52.133  1.00  0.00    +0.007 A 
ATOM      2  C   UNL     1      35.945  65.595  51.351  1.00  0.00    +0.010 A 
ATOM      3  C   UNL     1      37.061  66.183  51.955  1.00  0.00    +0.001 A 
ATOM      4  C   UNL     1      37.133  66.289  53.335  1.00  0.00    +0.002 A 
ATOM      5  C   UNL     1      36.100  65.800  54.136  1.00  0.00    +0.020 A 
ATOM      6  C   UNL     1      34.981  65.202  53.522  1.00  0.00    +0.037 A 
ATOM      7  S   UNL     1      33.625  64.508  54.311  1.00  0.00    -0.117 S 
ATOM      8  C   UNL     1      32.917  64.018  52.857  1.00  0.00    +0.110 A 
ATOM      9  C   UNL     1      33.611  64.485  51.753  1.00  0.00    +0.082 A 
ENDROOT
BRANCH   9  10
ATOM     10  C   UNL     1      33.111  64.277  50.394  1.00  0.00    +0.257 C 
ATOM     11  N   UNL     1      33.508  63.118  49.718  1.00  0.00    -0.338 N 
ATOM     12  O   UNL     1      32.418  65.138  49.852  1.00  0.00    -0.269 OA
ATOM     13  C   UNL     1      34.726  62.374  50.042  1.00  0.00    +0.121 C 
ATOM     14  C   UNL     1      32.946  62.847  48.409  1.00  0.00    +0.121 C 
ATOM     15  C   UNL     1      35.446  61.845  48.794  1.00  0.00    +0.041 C 
ATOM     16  C   UNL     1      33.933  63.217  47.306  1.00  0.00    +0.041 C 
ATOM     17  C   UNL     1      35.412  62.889  47.656  1.00  0.00    +0.060 C 
BRANCH  17  18
ATOM     18  N   UNL     1      36.155  62.490  46.428  1.00  0.00    -0.299 NA
ATOM     19  C   UNL     1      37.540  62.996  46.449  1.00  0.00    +0.085 C 
ATOM     20  C   UNL     1      36.183  61.022  46.224  1.00  0.00    +0.103 C 
ATOM     21  C   UNL     1      38.188  62.864  45.071  1.00  0.00    +0.017 C 
ATOM     22  C   UNL     1      37.139  60.532  45.107  1.00  0.00    +0.084 C 
ATOM     23  C   UNL     1      37.668  61.686  44.249  1.00  0.00    +0.021 C 
ATOM     24  C   UNL     1      38.270  59.731  45.725  1.00  0.00    +0.314 C 
ATOM     25  C   UNL     1      36.500  59.466  44.207  1.00  0.00    +0.068 C 
ATOM     26  O   UNL     1      39.231  60.191  46.320  1.00  0.00    -0.252 OA
ATOM     27  O   UNL     1      38.070  58.390  45.562  1.00  0.00    -0.459 OA
ATOM     28  C   UNL     1      36.843  58.139  44.867  1.00  0.00    +0.108 C 
ATOM     29  C   UNL     1      35.790  57.665  45.870  1.00  0.00    +0.056 C 
ATOM     30  C   UNL     1      37.094  57.045  43.828  1.00  0.00    +0.056 C 
ENDBRANCH  17  18
ENDBRANCH   9  10
BRANCH   8  31
ATOM     31  N   UNL     1      31.752  63.266  52.825  1.00  0.00    -0.299 N 
ATOM     32  C   UNL     1      31.491  62.089  53.493  1.00  0.00    +0.319 C 
ATOM     33  O   UNL     1      32.234  61.475  54.247  1.00  0.00    -0.248 OA
ATOM     34  N   UNL     1      30.214  61.640  53.200  1.00  0.00    -0.338 N 
ATOM     35  H   UNL     1      31.102  63.515  52.087  1.00  0.00    +0.172 HD
ATOM     36  H   UNL     1      29.551  62.328  52.874  1.00  0.00    +0.165 HD
BRANCH  34  37
ATOM     37  C   UNL     1      29.676  60.451  53.828  1.00  0.00    +0.114 C 
ATOM     38  C   UNL     1      28.964  60.770  55.130  1.00  0.00    +0.027 C 
ENDBRANCH  34  37
ENDBRANCH   8  31
TORSDOF 4
ENDMDL
MODEL 15
REMARK VINA RESULT:    -7.353      3.915      9.948
REMARK INTER + INTRA:         -10.229
REMARK INTER:                  -9.546
REMARK INTRA:                  -0.684
REMARK UNBOUND:                -1.156
REMARK SMILES CCNC(=O)Nc1sc2ccccc2c1C(=O)N1CCC(N2CCC[C@@]3(C2)CC(C)(C)OC3=O)CC1
REMARK SMILES IDX 14 1 13 2 12 3 11 4 10 5 9 6 8 7 7 8 15 9 16 10 18 11 17 12
REMARK SMILES IDX 19 13 36 14 20 15 35 16 21 17 22 18 23 19 27 20 24 21 26 22
REMARK SMILES IDX 25 23 33 24 28 25 34 26 32 27 29 28 30 29 31 30 6 31 4 32
REMARK SMILES IDX 5 33 3 34 2 37 1 38
REMARK H PARENT 6 35 3 36
REMARK INDEX MAP 1 1 2 2 3 3 4 4 5 5 6 6 7 7 8 8 13 9 14 10 15 11 16 12 17 13
REMARK INDEX MAP 19 14 18 15 20 16 21 17 22 18 23 19 26 20 24 21 27 22 25 23
REMARK INDEX MAP 28 24 31 25 29 26 30 27 32 28 33 29 34 30 9 31 10 32 11 33
REMARK INDEX MAP 12 34 41 35 42 36 35 37 36 38
ROOT
ATOM      1  C   UNL     1      36.743  65.215  55.340  1.00  0.00    +0.007 A 
ATOM      2  C   UNL     1      37.338  66.291  56.053  1.00  0.00    +0.010 A 
ATOM      3  C   UNL     1      37.712  66.145  57.392  1.00  0.00    +0.001 A 
ATOM      4  C   UNL     1      37.513  64.939  58.046  1.00  0.00    +0.002 A 
ATOM      5  C   UNL     1      36.950  63.854  57.371  1.00  0.00    +0.020 A 
ATOM      6  C   UNL     1      36.582  64.005  56.019  1.00  0.00    +0.037 A 
ATOM      7  S   UNL     1      35.912  62.801  54.997  1.00  0.00    -0.117 S 
ATOM      8  C   UNL     1      35.892  63.826  53.653  1.00  0.00    +0.110 A 
ATOM      9  C   UNL     1      36.256  65.122  53.977  1.00  0.00    +0.082 A 
ENDROOT
BRANCH   9  10
ATOM     10  C   UNL     1      36.198  66.201  52.991  1.00  0.00    +0.257 C 
ATOM     11  N   UNL     1      37.404  66.764  52.561  1.00  0.00    -0.338 N 
ATOM     12  O   UNL     1      35.110  66.633  52.611  1.00  0.00    -0.269 OA
ATOM     13  C   UNL     1      38.638  66.720  53.346  1.00  0.00    +0.121 C 
ATOM     14  C   UNL     1      37.372  67.766  51.513  1.00  0.00    +0.121 C 
ATOM     15  C   UNL     1      39.443  68.025  53.258  1.00  0.00    +0.041 C 
ATOM     16  C   UNL     1      37.512  69.168  52.095  1.00  0.00    +0.041 C 
ATOM     17  C   UNL     1      38.505  69.251  53.289  1.00  0.00    +0.060 C 
BRANCH  17  18
ATOM     18  N   UNL     1      39.206  70.566  53.286  1.00  0.00    -0.299 NA
ATOM     19  C   UNL     1      38.291  71.664  53.646  1.00  0.00    +0.085 C 
ATOM     20  C   UNL     1      40.375  70.597  54.196  1.00  0.00    +0.103 C 
ATOM     21  C   UNL     1      38.920  73.022  53.332  1.00  0.00    +0.017 C 
ATOM     22  C   UNL     1      40.996  71.999  54.421  1.00  0.00    +0.084 C 
ATOM     23  C   UNL     1      40.444  73.041  53.443  1.00  0.00    +0.021 C 
ATOM     24  C   UNL     1      40.786  72.419  55.863  1.00  0.00    +0.314 C 
ATOM     25  C   UNL     1      42.529  71.984  54.354  1.00  0.00    +0.068 C 
ATOM     26  O   UNL     1      39.742  72.826  56.346  1.00  0.00    -0.252 OA
ATOM     27  O   UNL     1      41.929  72.258  56.594  1.00  0.00    -0.459 OA
ATOM     28  C   UNL     1      42.982  71.726  55.783  1.00  0.00    +0.108 C 
ATOM     29  C   UNL     1      43.162  70.243  56.109  1.00  0.00    +0.056 C 
ATOM     30  C   UNL     1      44.269  72.485  56.107  1.00  0.00    +0.056 C 
ENDBRANCH  17  18
ENDBRANCH   9  10
BRANCH   8  31
ATOM     31  N   UNL     1      35.512  63.380  52.395  1.00  0.00    -0.299 N 
ATOM     32  C   UNL     1      34.241  63.066  51.963  1.00  0.00    +0.319 C 
ATOM     33  O   UNL     1      33.199  63.118  52.600  1.00  0.00    -0.248 OA
ATOM     34  N   UNL     1      34.271  62.654  50.640  1.00  0.00    -0.338 N 
ATOM     35  H   UNL     1      36.275  63.080  51.799  1.00  0.00    +0.172 HD
ATOM     36  H   UNL     1      35.058  62.953  50.085  1.00  0.00    +0.165 HD
BRANCH  34  37
ATOM     37  C   UNL     1      33.051  62.327  49.932  1.00  0.00    +0.114 C 
ATOM     38  C   UNL     1      32.789  63.281  48.780  1.00  0.00    +0.027 C 
ENDBRANCH  34  37
ENDBRANCH   8  31
TORSDOF 4
ENDMDL
MODEL 16
REMARK VINA RESULT:    -7.348      5.057      9.098
REMARK INTER + INTRA:         -10.223
REMARK INTER:                  -8.779
REMARK INTRA:                  -1.443
REMARK UNBOUND:                -1.156
REMARK SMILES CCNC(=O)Nc1sc2ccccc2c1C(=O)N1CCC(N2CCC[C@@]3(C2)CC(C)(C)OC3=O)CC1
REMARK SMILES IDX 14 1 13 2 12 3 11 4 10 5 9 6 8 7 7 8 15 9 16 10 18 11 17 12
REMARK SMILES IDX 19 13 36 14 20 15 35 16 21 17 22 18 23 19 27 20 24 21 26 22
REMARK SMILES IDX 25 23 33 24 28 25 34 26 32 27 29 28 30 29 31 30 6 31 4 32
REMARK SMILES IDX 5 33 3 34 2 37 1 38
REMARK H PARENT 6 35 3 36
REMARK INDEX MAP 1 1 2 2 3 3 4 4 5 5 6 6 7 7 8 8 13 9 14 10 15 11 16 12 17 13
REMARK INDEX MAP 19 14 18 15 20 16 21 17 22 18 23 19 26 20 24 21 27 22 25 23
REMARK INDEX MAP 28 24 31 25 29 26 30 27 32 28 33 29 34 30 9 31 10 32 11 33
REMARK INDEX MAP 12 34 41 35 42 36 35 37 36 38
ROOT
ATOM      1  C   UNL     1      38.947  72.443  53.082  1.00  0.00    +0.007 A 
ATOM      2  C   UNL     1      38.735  72.492  54.485  1.00  0.00    +0.010 A 
ATOM      3  C   UNL     1      38.138  73.605  55.084  1.00  0.00    +0.001 A 
ATOM      4  C   UNL     1      37.734  74.682  54.309  1.00  0.00    +0.002 A 
ATOM      5  C   UNL     1      37.909  74.660  52.924  1.00  0.00    +0.020 A 
ATOM      6  C   UNL     1      38.505  73.532  52.327  1.00  0.00    +0.037 A 
ATOM      7  S   UNL     1      38.780  73.282  50.652  1.00  0.00    -0.117 S 
ATOM      8  C   UNL     1      39.411  71.733  50.895  1.00  0.00    +0.110 A 
ATOM      9  C   UNL     1      39.554  71.431  52.239  1.00  0.00    +0.082 A 
ENDROOT
BRANCH   9  10
ATOM     10  C   UNL     1      40.188  70.188  52.679  1.00  0.00    +0.257 C 
ATOM     11  N   UNL     1      39.418  69.021  52.675  1.00  0.00    -0.338 N 
ATOM     12  O   UNL     1      41.345  70.200  53.100  1.00  0.00    -0.269 OA
ATOM     13  C   UNL     1      37.956  69.020  52.747  1.00  0.00    +0.121 C 
ATOM     14  C   UNL     1      40.056  67.763  53.013  1.00  0.00    +0.121 C 
ATOM     15  C   UNL     1      37.408  67.886  53.626  1.00  0.00    +0.041 C 
ATOM     16  C   UNL     1      39.738  67.361  54.450  1.00  0.00    +0.041 C 
ATOM     17  C   UNL     1      38.283  67.694  54.884  1.00  0.00    +0.060 C 
BRANCH  17  18
ATOM     18  N   UNL     1      37.780  66.663  55.834  1.00  0.00    -0.299 NA
ATOM     19  C   UNL     1      37.008  65.618  55.137  1.00  0.00    +0.085 C 
ATOM     20  C   UNL     1      38.865  66.020  56.612  1.00  0.00    +0.103 C 
ATOM     21  C   UNL     1      36.236  64.755  56.135  1.00  0.00    +0.017 C 
ATOM     22  C   UNL     1      38.438  64.779  57.436  1.00  0.00    +0.084 C 
ATOM     23  C   UNL     1      36.915  64.621  57.497  1.00  0.00    +0.021 C 
ATOM     24  C   UNL     1      39.106  63.541  56.869  1.00  0.00    +0.314 C 
ATOM     25  C   UNL     1      39.017  64.784  58.857  1.00  0.00    +0.068 C 
ATOM     26  O   UNL     1      38.779  62.953  55.850  1.00  0.00    -0.252 OA
ATOM     27  O   UNL     1      40.170  63.161  57.636  1.00  0.00    -0.459 OA
ATOM     28  C   UNL     1      40.347  64.054  58.741  1.00  0.00    +0.108 C 
ATOM     29  C   UNL     1      41.529  64.980  58.450  1.00  0.00    +0.056 C 
ATOM     30  C   UNL     1      40.639  63.222  59.990  1.00  0.00    +0.056 C 
ENDBRANCH  17  18
ENDBRANCH   9  10
BRANCH   8  31
ATOM     31  N   UNL     1      39.764  70.910  49.836  1.00  0.00    -0.299 N 
ATOM     32  C   UNL     1      38.931  70.132  49.061  1.00  0.00    +0.319 C 
ATOM     33  O   UNL     1      37.717  70.014  49.152  1.00  0.00    -0.248 OA
ATOM     34  N   UNL     1      39.663  69.447  48.104  1.00  0.00    -0.338 N 
ATOM     35  H   UNL     1      40.757  70.722  49.752  1.00  0.00    +0.172 HD
ATOM     36  H   UNL     1      40.562  69.831  47.855  1.00  0.00    +0.165 HD
BRANCH  34  37
ATOM     37  C   UNL     1      39.008  68.608  47.122  1.00  0.00    +0.114 C 
ATOM     38  C   UNL     1      38.992  67.149  47.543  1.00  0.00    +0.027 C 
ENDBRANCH  34  37
ENDBRANCH   8  31
TORSDOF 4
ENDMDL
MODEL 17
REMARK VINA RESULT:    -7.339      3.850      7.414
REMARK INTER + INTRA:         -10.211
REMARK INTER:                  -8.931
REMARK INTRA:                  -1.280
REMARK UNBOUND:                -1.156
REMARK SMILES CCNC(=O)Nc1sc2ccccc2c1C(=O)N1CCC(N2CCC[C@@]3(C2)CC(C)(C)OC3=O)CC1
REMARK SMILES IDX 14 1 13 2 12 3 11 4 10 5 9 6 8 7 7 8 15 9 16 10 18 11 17 12
REMARK SMILES IDX 19 13 36 14 20 15 35 16 21 17 22 18 23 19 27 20 24 21 26 22
REMARK SMILES IDX 25 23 33 24 28 25 34 26 32 27 29 28 30 29 31 30 6 31 4 32
REMARK SMILES IDX 5 33 3 34 2 37 1 38
REMARK H PARENT 6 35 3 36
REMARK INDEX MAP 1 1 2 2 3 3 4 4 5 5 6 6 7 7 8 8 13 9 14 10 15 11 16 12 17 13
REMARK INDEX MAP 19 14 18 15 20 16 21 17 22 18 23 19 26 20 24 21 27 22 25 23
REMARK INDEX MAP 28 24 31 25 29 26 30 27 32 28 33 29 34 30 9 31 10 32 11 33
REMARK INDEX MAP 12 34 41 35 42 36 35 37 36 38
ROOT
ATOM      1  C   UNL     1      36.684  64.092  53.527  1.00  0.00    +0.007 A 
ATOM      2  C   UNL     1      36.660  64.532  52.177  1.00  0.00    +0.010 A 
ATOM      3  C   UNL     1      35.778  63.966  51.252  1.00  0.00    +0.001 A 
ATOM      4  C   UNL     1      34.902  62.965  51.644  1.00  0.00    +0.002 A 
ATOM      5  C   UNL     1      34.884  62.521  52.968  1.00  0.00    +0.020 A 
ATOM      6  C   UNL     1      35.770  63.101  53.897  1.00  0.00    +0.037 A 
ATOM      7  S   UNL     1      35.890  62.734  55.569  1.00  0.00    -0.117 S 
ATOM      8  C   UNL     1      37.079  63.906  55.832  1.00  0.00    +0.110 A 
ATOM      9  C   UNL     1      37.504  64.496  54.653  1.00  0.00    +0.082 A 
ENDROOT
BRANCH   9  10
ATOM     10  C   UNL     1      38.608  65.456  54.634  1.00  0.00    +0.257 C 
ATOM     11  N   UNL     1      38.301  66.813  54.778  1.00  0.00    -0.338 N 
ATOM     12  O   UNL     1      39.759  65.070  54.430  1.00  0.00    -0.269 OA
ATOM     13  C   UNL     1      36.992  67.381  54.454  1.00  0.00    +0.121 C 
ATOM     14  C   UNL     1      39.388  67.769  54.859  1.00  0.00    +0.121 C 
ATOM     15  C   UNL     1      37.093  68.759  53.784  1.00  0.00    +0.041 C 
ATOM     16  C   UNL     1      39.591  68.478  53.524  1.00  0.00    +0.041 C 
ATOM     17  C   UNL     1      38.264  68.795  52.778  1.00  0.00    +0.060 C 
BRANCH  17  18
ATOM     18  N   UNL     1      38.391  70.073  52.023  1.00  0.00    -0.299 NA
ATOM     19  C   UNL     1      39.419  70.949  52.615  1.00  0.00    +0.085 C 
ATOM     20  C   UNL     1      38.705  69.866  50.590  1.00  0.00    +0.103 C 
ATOM     21  C   UNL     1      39.322  72.364  52.045  1.00  0.00    +0.017 C 
ATOM     22  C   UNL     1      39.086  71.148  49.808  1.00  0.00    +0.084 C 
ATOM     23  C   UNL     1      38.802  72.422  50.610  1.00  0.00    +0.021 C 
ATOM     24  C   UNL     1      40.541  71.067  49.384  1.00  0.00    +0.314 C 
ATOM     25  C   UNL     1      38.400  71.232  48.438  1.00  0.00    +0.068 C 
ATOM     26  O   UNL     1      41.509  71.243  50.107  1.00  0.00    -0.252 OA
ATOM     27  O   UNL     1      40.651  70.735  48.064  1.00  0.00    -0.459 OA
ATOM     28  C   UNL     1      39.359  70.548  47.476  1.00  0.00    +0.108 C 
ATOM     29  C   UNL     1      39.097  69.049  47.314  1.00  0.00    +0.056 C 
ATOM     30  C   UNL     1      39.353  71.223  46.104  1.00  0.00    +0.056 C 
ENDBRANCH  17  18
ENDBRANCH   9  10
BRANCH   8  31
ATOM     31  N   UNL     1      37.567  64.185  57.100  1.00  0.00    -0.299 N 
ATOM     32  C   UNL     1      38.584  63.539  57.771  1.00  0.00    +0.319 C 
ATOM     33  O   UNL     1      39.256  62.594  57.382  1.00  0.00    -0.248 OA
ATOM     34  N   UNL     1      38.775  64.109  59.019  1.00  0.00    -0.338 N 
ATOM     35  H   UNL     1      36.988  64.805  57.655  1.00  0.00    +0.172 HD
ATOM     36  H   UNL     1      38.456  65.058  59.143  1.00  0.00    +0.165 HD
BRANCH  34  37
ATOM     37  C   UNL     1      39.832  63.649  59.897  1.00  0.00    +0.114 C 
ATOM     38  C   UNL     1      40.677  64.796  60.418  1.00  0.00    +0.027 C 
ENDBRANCH  34  37
ENDBRANCH   8  31
TORSDOF 4
ENDMDL
MODEL 18
REMARK VINA RESULT:    -7.284      5.509      8.623
REMARK INTER + INTRA:         -10.144
REMARK INTER:                  -8.610
REMARK INTRA:                  -1.535
REMARK UNBOUND:                -1.156
REMARK SMILES CCNC(=O)Nc1sc2ccccc2c1C(=O)N1CCC(N2CCC[C@@]3(C2)CC(C)(C)OC3=O)CC1
REMARK SMILES IDX 14 1 13 2 12 3 11 4 10 5 9 6 8 7 7 8 15 9 16 10 18 11 17 12
REMARK SMILES IDX 19 13 36 14 20 15 35 16 21 17 22 18 23 19 27 20 24 21 26 22
REMARK SMILES IDX 25 23 33 24 28 25 34 26 32 27 29 28 30 29 31 30 6 31 4 32
REMARK SMILES IDX 5 33 3 34 2 37 1 38
REMARK H PARENT 6 35 3 36
REMARK INDEX MAP 1 1 2 2 3 3 4 4 5 5 6 6 7 7 8 8 13 9 14 10 15 11 16 12 17 13
REMARK INDEX MAP 19 14 18 15 20 16 21 17 22 18 23 19 26 20 24 21 27 22 25 23
REMARK INDEX MAP 28 24 31 25 29 26 30 27 32 28 33 29 34 30 9 31 10 32 11 33
REMARK INDEX MAP 12 34 41 35 42 36 35 37 36 38
ROOT
ATOM      1  C   UNL     1      39.351  72.647  52.879  1.00  0.00    +0.007 A 
ATOM      2  C   UNL     1      39.159  72.520  51.477  1.00  0.00    +0.010 A 
ATOM      3  C   UNL     1      38.563  73.547  50.738  1.00  0.00    +0.001 A 
ATOM      4  C   UNL     1      38.156  74.714  51.366  1.00  0.00    +0.002 A 
ATOM      5  C   UNL     1      38.347  74.881  52.739  1.00  0.00    +0.020 A 
ATOM      6  C   UNL     1      38.955  73.846  53.477  1.00  0.00    +0.037 A 
ATOM      7  S   UNL     1      39.316  73.856  55.154  1.00  0.00    -0.117 S 
ATOM      8  C   UNL     1      40.048  72.333  55.096  1.00  0.00    +0.110 A 
ATOM      9  C   UNL     1      39.913  71.734  53.855  1.00  0.00    +0.082 A 
ENDROOT
BRANCH   9  10
ATOM     10  C   UNL     1      40.372  70.365  53.614  1.00  0.00    +0.257 C 
ATOM     11  N   UNL     1      39.404  69.371  53.435  1.00  0.00    -0.338 N 
ATOM     12  O   UNL     1      41.574  70.103  53.639  1.00  0.00    -0.269 OA
ATOM     13  C   UNL     1      38.036  69.477  53.943  1.00  0.00    +0.121 C 
ATOM     14  C   UNL     1      39.839  68.029  53.098  1.00  0.00    +0.121 C 
ATOM     15  C   UNL     1      37.503  68.144  54.489  1.00  0.00    +0.041 C 
ATOM     16  C   UNL     1      39.809  67.123  54.326  1.00  0.00    +0.041 C 
ATOM     17  C   UNL     1      38.602  67.391  55.269  1.00  0.00    +0.060 C 
BRANCH  17  18
ATOM     18  N   UNL     1      38.151  66.120  55.901  1.00  0.00    -0.299 NA
ATOM     19  C   UNL     1      37.792  65.112  54.887  1.00  0.00    +0.085 C 
ATOM     20  C   UNL     1      39.163  65.541  56.816  1.00  0.00    +0.103 C 
ATOM     21  C   UNL     1      37.037  63.945  55.524  1.00  0.00    +0.017 C 
ATOM     22  C   UNL     1      38.856  64.107  57.314  1.00  0.00    +0.084 C 
ATOM     23  C   UNL     1      37.428  63.669  56.975  1.00  0.00    +0.021 C 
ATOM     24  C   UNL     1      39.885  63.145  56.749  1.00  0.00    +0.314 C 
ATOM     25  C   UNL     1      39.109  63.935  58.818  1.00  0.00    +0.068 C 
ATOM     26  O   UNL     1      39.917  62.721  55.605  1.00  0.00    -0.252 OA
ATOM     27  O   UNL     1      40.821  62.819  57.688  1.00  0.00    -0.459 OA
ATOM     28  C   UNL     1      40.560  63.493  58.924  1.00  0.00    +0.108 C 
ATOM     29  C   UNL     1      41.543  64.656  59.075  1.00  0.00    +0.056 C 
ATOM     30  C   UNL     1      40.760  62.498  60.067  1.00  0.00    +0.056 C 
ENDBRANCH  17  18
ENDBRANCH   9  10
BRANCH   8  31
ATOM     31  N   UNL     1      40.669  71.775  56.204  1.00  0.00    -0.299 N 
ATOM     32  C   UNL     1      42.012  71.797  56.515  1.00  0.00    +0.319 C 
ATOM     33  O   UNL     1      42.921  72.313  55.879  1.00  0.00    -0.248 OA
ATOM     34  N   UNL     1      42.242  71.125  57.705  1.00  0.00    -0.338 N 
ATOM     35  H   UNL     1      40.097  71.127  56.735  1.00  0.00    +0.172 HD
ATOM     36  H   UNL     1      41.461  71.032  58.337  1.00  0.00    +0.165 HD
BRANCH  34  37
ATOM     37  C   UNL     1      43.568  71.060  58.283  1.00  0.00    +0.114 C 
ATOM     38  C   UNL     1      43.817  69.740  58.988  1.00  0.00    +0.027 C 
ENDBRANCH  34  37
ENDBRANCH   8  31
TORSDOF 4
ENDMDL
MODEL 19
REMARK VINA RESULT:    -7.232      4.398      6.874
REMARK INTER + INTRA:         -10.080
REMARK INTER:                  -8.810
REMARK INTRA:                  -1.270
REMARK UNBOUND:                -1.156
REMARK SMILES CCNC(=O)Nc1sc2ccccc2c1C(=O)N1CCC(N2CCC[C@@]3(C2)CC(C)(C)OC3=O)CC1
REMARK SMILES IDX 14 1 13 2 12 3 11 4 10 5 9 6 8 7 7 8 15 9 16 10 18 11 17 12
REMARK SMILES IDX 19 13 36 14 20 15 35 16 21 17 22 18 23 19 27 20 24 21 26 22
REMARK SMILES IDX 25 23 33 24 28 25 34 26 32 27 29 28 30 29 31 30 6 31 4 32
REMARK SMILES IDX 5 33 3 34 2 37 1 38
REMARK H PARENT 6 35 3 36
REMARK INDEX MAP 1 1 2 2 3 3 4 4 5 5 6 6 7 7 8 8 13 9 14 10 15 11 16 12 17 13
REMARK INDEX MAP 19 14 18 15 20 16 21 17 22 18 23 19 26 20 24 21 27 22 25 23
REMARK INDEX MAP 28 24 31 25 29 26 30 27 32 28 33 29 34 30 9 31 10 32 11 33
REMARK INDEX MAP 12 34 41 35 42 36 35 37 36 38
ROOT
ATOM      1  C   UNL     1      39.273  72.649  52.985  1.00  0.00    +0.007 A 
ATOM      2  C   UNL     1      39.068  72.603  51.580  1.00  0.00    +0.010 A 
ATOM      3  C   UNL     1      38.454  73.665  50.909  1.00  0.00    +0.001 A 
ATOM      4  C   UNL     1      38.042  74.789  51.608  1.00  0.00    +0.002 A 
ATOM      5  C   UNL     1      38.247  74.877  52.986  1.00  0.00    +0.020 A 
ATOM      6  C   UNL     1      38.872  73.806  53.656  1.00  0.00    +0.037 A 
ATOM      7  S   UNL     1      39.252  73.722  55.327  1.00  0.00    -0.117 S 
ATOM      8  C   UNL     1      39.997  72.213  55.173  1.00  0.00    +0.110 A 
ATOM      9  C   UNL     1      39.855  71.686  53.900  1.00  0.00    +0.082 A 
ENDROOT
BRANCH   9  10
ATOM     10  C   UNL     1      40.324  70.339  53.575  1.00  0.00    +0.257 C 
ATOM     11  N   UNL     1      39.407  69.441  53.019  1.00  0.00    -0.338 N 
ATOM     12  O   UNL     1      41.476  70.002  53.849  1.00  0.00    -0.269 OA
ATOM     13  C   UNL     1      37.959  69.558  53.192  1.00  0.00    +0.121 C 
ATOM     14  C   UNL     1      39.877  68.134  52.600  1.00  0.00    +0.121 C 
ATOM     15  C   UNL     1      37.273  68.198  53.386  1.00  0.00    +0.041 C 
ATOM     16  C   UNL     1      39.521  67.070  53.634  1.00  0.00    +0.041 C 
ATOM     17  C   UNL     1      38.125  67.278  54.287  1.00  0.00    +0.060 C 
BRANCH  17  18
ATOM     18  N   UNL     1      37.499  65.961  54.593  1.00  0.00    -0.299 NA
ATOM     19  C   UNL     1      37.045  65.894  55.994  1.00  0.00    +0.085 C 
ATOM     20  C   UNL     1      36.357  65.645  53.703  1.00  0.00    +0.103 C 
ATOM     21  C   UNL     1      36.703  64.457  56.388  1.00  0.00    +0.017 C 
ATOM     22  C   UNL     1      35.517  64.413  54.122  1.00  0.00    +0.084 C 
ATOM     23  C   UNL     1      36.195  63.599  55.230  1.00  0.00    +0.021 C 
ATOM     24  C   UNL     1      34.128  64.864  54.530  1.00  0.00    +0.314 C 
ATOM     25  C   UNL     1      35.178  63.497  52.938  1.00  0.00    +0.068 C 
ATOM     26  O   UNL     1      33.830  65.402  55.585  1.00  0.00    -0.252 OA
ATOM     27  O   UNL     1      33.220  64.619  53.540  1.00  0.00    -0.459 OA
ATOM     28  C   UNL     1      33.854  64.021  52.403  1.00  0.00    +0.108 C 
ATOM     29  C   UNL     1      34.013  65.078  51.308  1.00  0.00    +0.056 C 
ATOM     30  C   UNL     1      32.965  62.885  51.898  1.00  0.00    +0.056 C 
ENDBRANCH  17  18
ENDBRANCH   9  10
BRANCH   8  31
ATOM     31  N   UNL     1      40.636  71.597  56.239  1.00  0.00    -0.299 N 
ATOM     32  C   UNL     1      41.929  71.798  56.675  1.00  0.00    +0.319 C 
ATOM     33  O   UNL     1      42.767  72.557  56.211  1.00  0.00    -0.248 OA
ATOM     34  N   UNL     1      42.198  70.991  57.769  1.00  0.00    -0.338 N 
ATOM     35  H   UNL     1      40.159  70.784  56.612  1.00  0.00    +0.172 HD
ATOM     36  H   UNL     1      41.408  70.665  58.304  1.00  0.00    +0.165 HD
BRANCH  34  37
ATOM     37  C   UNL     1      43.473  71.061  58.453  1.00  0.00    +0.114 C 
ATOM     38  C   UNL     1      44.294  69.800  58.256  1.00  0.00    +0.027 C 
ENDBRANCH  34  37
ENDBRANCH   8  31
TORSDOF 4
ENDMDL
MODEL 20
REMARK VINA RESULT:    -7.025      6.239     10.653
REMARK INTER + INTRA:          -9.824
REMARK INTER:                  -8.423
REMARK INTRA:                  -1.401
REMARK UNBOUND:                -1.156
REMARK SMILES CCNC(=O)Nc1sc2ccccc2c1C(=O)N1CCC(N2CCC[C@@]3(C2)CC(C)(C)OC3=O)CC1
REMARK SMILES IDX 14 1 13 2 12 3 11 4 10 5 9 6 8 7 7 8 15 9 16 10 18 11 17 12
REMARK SMILES IDX 19 13 36 14 20 15 35 16 21 17 22 18 23 19 27 20 24 21 26 22
REMARK SMILES IDX 25 23 33 24 28 25 34 26 32 27 29 28 30 29 31 30 6 31 4 32
REMARK SMILES IDX 5 33 3 34 2 37 1 38
REMARK H PARENT 6 35 3 36
REMARK INDEX MAP 1 1 2 2 3 3 4 4 5 5 6 6 7 7 8 8 13 9 14 10 15 11 16 12 17 13
REMARK INDEX MAP 19 14 18 15 20 16 21 17 22 18 23 19 26 20 24 21 27 22 25 23
REMARK INDEX MAP 28 24 31 25 29 26 30 27 32 28 33 29 34 30 9 31 10 32 11 33
REMARK INDEX MAP 12 34 41 35 42 36 35 37 36 38
ROOT
ATOM      1  C   UNL     1      39.237  66.016  45.873  1.00  0.00    +0.007 A 
ATOM      2  C   UNL     1      37.945  65.657  46.340  1.00  0.00    +0.010 A 
ATOM      3  C   UNL     1      37.407  64.395  46.068  1.00  0.00    +0.001 A 
ATOM      4  C   UNL     1      38.136  63.467  45.340  1.00  0.00    +0.002 A 
ATOM      5  C   UNL     1      39.419  63.778  44.883  1.00  0.00    +0.020 A 
ATOM      6  C   UNL     1      39.957  65.049  45.167  1.00  0.00    +0.037 A 
ATOM      7  S   UNL     1      41.516  65.623  44.736  1.00  0.00    -0.117 S 
ATOM      8  C   UNL     1      41.286  67.102  45.522  1.00  0.00    +0.110 A 
ATOM      9  C   UNL     1      39.995  67.245  46.002  1.00  0.00    +0.082 A 
ENDROOT
BRANCH   9  10
ATOM     10  C   UNL     1      39.543  68.494  46.616  1.00  0.00    +0.257 C 
ATOM     11  N   UNL     1      39.973  68.780  47.916  1.00  0.00    -0.338 N 
ATOM     12  O   UNL     1      38.756  69.227  46.018  1.00  0.00    -0.269 OA
ATOM     13  C   UNL     1      40.404  67.753  48.866  1.00  0.00    +0.121 C 
ATOM     14  C   UNL     1      39.616  70.057  48.504  1.00  0.00    +0.121 C 
ATOM     15  C   UNL     1      39.933  68.037  50.299  1.00  0.00    +0.041 C 
ATOM     16  C   UNL     1      38.445  69.904  49.469  1.00  0.00    +0.041 C 
ATOM     17  C   UNL     1      38.492  68.592  50.304  1.00  0.00    +0.060 C 
BRANCH  17  18
ATOM     18  N   UNL     1      37.923  68.825  51.661  1.00  0.00    -0.299 NA
ATOM     19  C   UNL     1      38.548  67.944  52.665  1.00  0.00    +0.085 C 
ATOM     20  C   UNL     1      38.057  70.232  52.108  1.00  0.00    +0.103 C 
ATOM     21  C   UNL     1      37.752  67.956  53.970  1.00  0.00    +0.017 C 
ATOM     22  C   UNL     1      37.707  70.485  53.596  1.00  0.00    +0.084 C 
ATOM     23  C   UNL     1      37.032  69.274  54.247  1.00  0.00    +0.021 C 
ATOM     24  C   UNL     1      38.961  70.897  54.346  1.00  0.00    +0.314 C 
ATOM     25  C   UNL     1      36.839  71.735  53.795  1.00  0.00    +0.068 C 
ATOM     26  O   UNL     1      39.858  70.151  54.703  1.00  0.00    -0.252 OA
ATOM     27  O   UNL     1      38.987  72.245  54.557  1.00  0.00    -0.459 OA
ATOM     28  C   UNL     1      37.829  72.873  53.995  1.00  0.00    +0.108 C 
ATOM     29  C   UNL     1      38.224  73.575  52.695  1.00  0.00    +0.056 C 
ATOM     30  C   UNL     1      37.304  73.901  54.998  1.00  0.00    +0.056 C 
ENDBRANCH  17  18
ENDBRANCH   9  10
BRANCH   8  31
ATOM     31  N   UNL     1      42.297  68.046  45.619  1.00  0.00    -0.299 N 
ATOM     32  C   UNL     1      43.377  68.039  46.477  1.00  0.00    +0.319 C 
ATOM     33  O   UNL     1      43.658  67.199  47.321  1.00  0.00    -0.248 OA
ATOM     34  N   UNL     1      44.163  69.161  46.271  1.00  0.00    -0.338 N 
ATOM     35  H   UNL     1      42.115  68.920  45.138  1.00  0.00    +0.172 HD
ATOM     36  H   UNL     1      44.089  69.614  45.373  1.00  0.00    +0.165 HD
BRANCH  34  37
ATOM     37  C   UNL     1      45.395  69.355  47.008  1.00  0.00    +0.114 C 
ATOM     38  C   UNL     1      45.202  70.264  48.208  1.00  0.00    +0.027 C 
ENDBRANCH  34  37
ENDBRANCH   8  31
TORSDOF 4
ENDMDL
