MODEL 1
REMARK VINA RESULT:   -10.316      0.000      0.000
REMARK INTER + INTRA:         -13.927
REMARK INTER:                 -12.728
REMARK INTRA:                  -1.200
REMARK UNBOUND:                -1.200
REMARK SMILES CCNC(=O)Nc1sc2ccccc2c1C(=O)N1CCC(N2CCC[C@@]3(C2)CC(C)(C)OC3=O)CC1
REMARK SMILES IDX 14 1 13 2 12 3 11 4 10 5 9 6 8 7 7 8 15 9 16 10 18 11 17 12
REMARK SMILES IDX 19 13 36 14 20 15 35 16 21 17 22 18 23 19 27 20 24 21 26 22
REMARK SMILES IDX 25 23 33 24 28 25 34 26 32 27 29 28 30 29 31 30 6 31 4 32
REMARK SMILES IDX 5 33 3 34 2 37 1 38
REMARK H PARENT 6 35 3 36
REMARK INDEX MAP 1 1 2 2 3 3 4 4 5 5 6 6 7 7 8 8 13 9 14 10 15 11 16 12 17 13
REMARK INDEX MAP 19 14 18 15 20 16 21 17 22 18 23 19 26 20 24 21 27 22 25 23
REMARK INDEX MAP 28 24 31 25 29 26 30 27 32 28 33 29 34 30 9 31 10 32 11 33
REMARK INDEX MAP 12 34 41 35 42 36 35 37 36 38
ROOT
ATOM      1  C   UNL     1      37.938  66.829  53.965  1.00  0.00    +0.007 A 
ATOM      2  C   UNL     1      37.072  67.071  52.865  1.00  0.00    +0.010 A 
ATOM      3  C   UNL     1      37.357  68.073  51.932  1.00  0.00    +0.001 A 
ATOM      4  C   UNL     1      38.502  68.844  52.064  1.00  0.00    +0.002 A 
ATOM      5  C   UNL     1      39.387  68.620  53.121  1.00  0.00    +0.020 A 
ATOM      6  C   UNL     1      39.097  67.605  54.053  1.00  0.00    +0.037 A 
ATOM      7  S   UNL     1      40.057  67.139  55.397  1.00  0.00    -0.117 S 
ATOM      8  C   UNL     1      39.007  65.887  55.828  1.00  0.00    +0.110 A 
ATOM      9  C   UNL     1      37.855  65.882  55.060  1.00  0.00    +0.082 A 
ENDROOT
BRANCH   9  10
ATOM     10  C   UNL     1      36.757  64.955  55.336  1.00  0.00    +0.257 C 
ATOM     11  N   UNL     1      36.684  63.781  54.581  1.00  0.00    -0.338 N 
ATOM     12  O   UNL     1      35.896  65.247  56.166  1.00  0.00    -0.269 OA
ATOM     13  C   UNL     1      37.285  63.637  53.255  1.00  0.00    +0.121 C 
ATOM     14  C   UNL     1      35.661  62.805  54.907  1.00  0.00    +0.121 C 
ATOM     15  C   UNL     1      36.404  62.829  52.290  1.00  0.00    +0.041 C 
ATOM     16  C   UNL     1      34.488  62.900  53.936  1.00  0.00    +0.041 C 
ATOM     17  C   UNL     1      34.915  63.194  52.470  1.00  0.00    +0.060 C 
BRANCH  17  18
ATOM     18  N   UNL     1      33.992  62.513  51.519  1.00  0.00    -0.299 NA
ATOM     19  C   UNL     1      32.773  63.309  51.289  1.00  0.00    +0.085 C 
ATOM     20  C   UNL     1      34.627  62.219  50.212  1.00  0.00    +0.103 C 
ATOM     21  C   UNL     1      31.705  62.475  50.580  1.00  0.00    +0.017 C 
ATOM     22  C   UNL     1      33.657  61.735  49.104  1.00  0.00    +0.084 C 
ATOM     23  C   UNL     1      32.269  61.397  49.656  1.00  0.00    +0.021 C 
ATOM     24  C   UNL     1      33.584  62.779  48.006  1.00  0.00    +0.314 C 
ATOM     25  C   UNL     1      34.209  60.539  48.317  1.00  0.00    +0.068 C 
ATOM     26  O   UNL     1      32.968  63.832  48.059  1.00  0.00    -0.252 OA
ATOM     27  O   UNL     1      34.333  62.411  46.926  1.00  0.00    -0.459 OA
ATOM     28  C   UNL     1      34.978  61.154  47.157  1.00  0.00    +0.108 C 
ATOM     29  C   UNL     1      36.456  61.401  47.467  1.00  0.00    +0.056 C 
ATOM     30  C   UNL     1      34.851  60.308  45.890  1.00  0.00    +0.056 C 
ENDBRANCH  17  18
ENDBRANCH   9  10
BRANCH   8  31
ATOM     31  N   UNL     1      39.295  65.012  56.864  1.00  0.00    -0.299 N 
ATOM     32  C   UNL     1      39.702  63.697  56.767  1.00  0.00    +0.319 C 
ATOM     33  O   UNL     1      39.890  63.045  55.750  1.00  0.00    -0.248 OA
ATOM     34  N   UNL     1      39.885  63.156  58.029  1.00  0.00    -0.338 N 
ATOM     35  H   UNL     1      38.993  65.320  57.782  1.00  0.00    +0.172 HD
ATOM     36  H   UNL     1      40.054  63.802  58.785  1.00  0.00    +0.165 HD
BRANCH  34  37
ATOM     37  C   UNL     1      40.373  61.802  58.197  1.00  0.00    +0.114 C 
ATOM     38  C   UNL     1      41.868  61.766  58.458  1.00  0.00    +0.027 C 
ENDBRANCH  34  37
ENDBRANCH   8  31
TORSDOF 4
ENDMDL
MODEL 2
REMARK VINA RESULT:    -9.980      1.942      3.032
REMARK INTER + INTRA:         -13.513
REMARK INTER:                 -12.172
REMARK INTRA:                  -1.341
REMARK UNBOUND:                -1.200
REMARK SMILES CCNC(=O)Nc1sc2ccccc2c1C(=O)N1CCC(N2CCC[C@@]3(C2)CC(C)(C)OC3=O)CC1
REMARK SMILES IDX 14 1 13 2 12 3 11 4 10 5 9 6 8 7 7 8 15 9 16 10 18 11 17 12
REMARK SMILES IDX 19 13 36 14 20 15 35 16 21 17 22 18 23 19 27 20 24 21 26 22
REMARK SMILES IDX 25 23 33 24 28 25 34 26 32 27 29 28 30 29 31 30 6 31 4 32
REMARK SMILES IDX 5 33 3 34 2 37 1 38
REMARK H PARENT 6 35 3 36
REMARK INDEX MAP 1 1 2 2 3 3 4 4 5 5 6 6 7 7 8 8 13 9 14 10 15 11 16 12 17 13
REMARK INDEX MAP 19 14 18 15 20 16 21 17 22 18 23 19 26 20 24 21 27 22 25 23
REMARK INDEX MAP 28 24 31 25 29 26 30 27 32 28 33 29 34 30 9 31 10 32 11 33
REMARK INDEX MAP 12 34 41 35 42 36 35 37 36 38
ROOT
ATOM      1  C   UNL     1      37.952  66.802  54.845  1.00  0.00    +0.007 A 
ATOM      2  C   UNL     1      37.029  67.545  54.062  1.00  0.00    +0.010 A 
ATOM      3  C   UNL     1      37.355  68.816  53.579  1.00  0.00    +0.001 A 
ATOM      4  C   UNL     1      38.596  69.370  53.854  1.00  0.00    +0.002 A 
ATOM      5  C   UNL     1      39.536  68.660  54.604  1.00  0.00    +0.020 A 
ATOM      6  C   UNL     1      39.204  67.377  55.081  1.00  0.00    +0.037 A 
ATOM      7  S   UNL     1      40.213  66.323  55.984  1.00  0.00    -0.117 S 
ATOM      8  C   UNL     1      39.055  65.093  56.013  1.00  0.00    +0.110 A 
ATOM      9  C   UNL     1      37.847  65.498  55.470  1.00  0.00    +0.082 A 
ENDROOT
BRANCH   9  10
ATOM     10  C   UNL     1      36.669  64.630  55.496  1.00  0.00    +0.257 C 
ATOM     11  N   UNL     1      36.445  63.793  54.399  1.00  0.00    -0.338 N 
ATOM     12  O   UNL     1      35.874  64.696  56.433  1.00  0.00    -0.269 OA
ATOM     13  C   UNL     1      36.980  64.057  53.062  1.00  0.00    +0.121 C 
ATOM     14  C   UNL     1      35.339  62.856  54.450  1.00  0.00    +0.121 C 
ATOM     15  C   UNL     1      35.985  63.704  51.947  1.00  0.00    +0.041 C 
ATOM     16  C   UNL     1      34.148  63.376  53.651  1.00  0.00    +0.041 C 
ATOM     17  C   UNL     1      34.549  64.113  52.341  1.00  0.00    +0.060 C 
BRANCH  17  18
ATOM     18  N   UNL     1      33.527  63.877  51.284  1.00  0.00    -0.299 NA
ATOM     19  C   UNL     1      34.153  63.496  50.005  1.00  0.00    +0.085 C 
ATOM     20  C   UNL     1      32.537  62.841  51.661  1.00  0.00    +0.103 C 
ATOM     21  C   UNL     1      33.141  63.570  48.861  1.00  0.00    +0.017 C 
ATOM     22  C   UNL     1      31.599  62.380  50.518  1.00  0.00    +0.084 C 
ATOM     23  C   UNL     1      31.701  63.283  49.284  1.00  0.00    +0.021 C 
ATOM     24  C   UNL     1      31.893  60.931  50.176  1.00  0.00    +0.314 C 
ATOM     25  C   UNL     1      30.134  62.271  50.961  1.00  0.00    +0.068 C 
ATOM     26  O   UNL     1      32.847  60.527  49.531  1.00  0.00    -0.252 OA
ATOM     27  O   UNL     1      30.954  60.099  50.715  1.00  0.00    -0.459 OA
ATOM     28  C   UNL     1      29.978  60.840  51.454  1.00  0.00    +0.108 C 
ATOM     29  C   UNL     1      30.256  60.676  52.950  1.00  0.00    +0.056 C 
ATOM     30  C   UNL     1      28.595  60.281  51.122  1.00  0.00    +0.056 C 
ENDBRANCH  17  18
ENDBRANCH   9  10
BRANCH   8  31
ATOM     31  N   UNL     1      39.320  63.848  56.563  1.00  0.00    -0.299 N 
ATOM     32  C   UNL     1      39.156  63.455  57.875  1.00  0.00    +0.319 C 
ATOM     33  O   UNL     1      38.744  64.124  58.812  1.00  0.00    -0.248 OA
ATOM     34  N   UNL     1      39.535  62.131  58.032  1.00  0.00    -0.338 N 
ATOM     35  H   UNL     1      39.866  63.227  55.975  1.00  0.00    +0.172 HD
ATOM     36  H   UNL     1      39.530  61.552  57.206  1.00  0.00    +0.165 HD
BRANCH  34  37
ATOM     37  C   UNL     1      39.398  61.461  59.309  1.00  0.00    +0.114 C 
ATOM     38  C   UNL     1      40.710  61.414  60.069  1.00  0.00    +0.027 C 
ENDBRANCH  34  37
ENDBRANCH   8  31
TORSDOF 4
ENDMDL
MODEL 3
REMARK VINA RESULT:    -8.645      3.349      6.570
REMARK INTER + INTRA:         -11.866
REMARK INTER:                 -11.165
REMARK INTRA:                  -0.701
REMARK UNBOUND:                -1.200
REMARK SMILES CCNC(=O)Nc1sc2ccccc2c1C(=O)N1CCC(N2CCC[C@@]3(C2)CC(C)(C)OC3=O)CC1
REMARK SMILES IDX 14 1 13 2 12 3 11 4 10 5 9 6 8 7 7 8 15 9 16 10 18 11 17 12
REMARK SMILES IDX 19 13 36 14 20 15 35 16 21 17 22 18 23 19 27 20 24 21 26 22
REMARK SMILES IDX 25 23 33 24 28 25 34 26 32 27 29 28 30 29 31 30 6 31 4 32
REMARK SMILES IDX 5 33 3 34 2 37 1 38
REMARK H PARENT 6 35 3 36
REMARK INDEX MAP 1 1 2 2 3 3 4 4 5 5 6 6 7 7 8 8 13 9 14 10 15 11 16 12 17 13
REMARK INDEX MAP 19 14 18 15 20 16 21 17 22 18 23 19 26 20 24 21 27 22 25 23
REMARK INDEX MAP 28 24 31 25 29 26 30 27 32 28 33 29 34 30 9 31 10 32 11 33
REMARK INDEX MAP 12 34 41 35 42 36 35 37 36 38
ROOT
ATOM      1  C   UNL     1      40.505  62.709  60.279  1.00  0.00    +0.007 A 
ATOM      2  C   UNL     1      40.097  61.400  59.909  1.00  0.00    +0.010 A 
ATOM      3  C   UNL     1      40.026  60.375  60.857  1.00  0.00    +0.001 A 
ATOM      4  C   UNL     1      40.347  60.626  62.182  1.00  0.00    +0.002 A 
ATOM      5  C   UNL     1      40.732  61.905  62.585  1.00  0.00    +0.020 A 
ATOM      6  C   UNL     1      40.795  62.936  61.627  1.00  0.00    +0.037 A 
ATOM      7  S   UNL     1      41.206  64.578  61.908  1.00  0.00    -0.117 S 
ATOM      8  C   UNL     1      40.943  65.014  60.297  1.00  0.00    +0.110 A 
ATOM      9  C   UNL     1      40.677  63.917  59.494  1.00  0.00    +0.082 A 
ENDROOT
BRANCH   9  10
ATOM     10  C   UNL     1      40.532  64.049  58.044  1.00  0.00    +0.257 C 
ATOM     11  N   UNL     1      39.521  64.886  57.560  1.00  0.00    -0.338 N 
ATOM     12  O   UNL     1      41.242  63.386  57.289  1.00  0.00    -0.269 OA
ATOM     13  C   UNL     1      38.325  65.232  58.328  1.00  0.00    +0.121 C 
ATOM     14  C   UNL     1      39.424  65.106  56.129  1.00  0.00    +0.121 C 
ATOM     15  C   UNL     1      37.059  65.283  57.461  1.00  0.00    +0.041 C 
ATOM     16  C   UNL     1      38.312  64.257  55.522  1.00  0.00    +0.041 C 
ATOM     17  C   UNL     1      37.054  64.135  56.428  1.00  0.00    +0.060 C 
BRANCH  17  18
ATOM     18  N   UNL     1      35.823  64.060  55.593  1.00  0.00    -0.299 NA
ATOM     19  C   UNL     1      35.151  65.370  55.505  1.00  0.00    +0.085 C 
ATOM     20  C   UNL     1      36.087  63.564  54.221  1.00  0.00    +0.103 C 
ATOM     21  C   UNL     1      33.743  65.222  54.928  1.00  0.00    +0.017 C 
ATOM     22  C   UNL     1      34.899  63.692  53.235  1.00  0.00    +0.084 C 
ATOM     23  C   UNL     1      33.593  64.060  53.946  1.00  0.00    +0.021 C 
ATOM     24  C   UNL     1      35.248  64.694  52.151  1.00  0.00    +0.314 C 
ATOM     25  C   UNL     1      34.692  62.427  52.391  1.00  0.00    +0.068 C 
ATOM     26  O   UNL     1      35.252  65.909  52.273  1.00  0.00    -0.252 OA
ATOM     27  O   UNL     1      35.597  64.063  50.992  1.00  0.00    -0.459 OA
ATOM     28  C   UNL     1      35.543  62.641  51.148  1.00  0.00    +0.108 C 
ATOM     29  C   UNL     1      36.968  62.100  51.283  1.00  0.00    +0.056 C 
ATOM     30  C   UNL     1      34.881  62.044  49.907  1.00  0.00    +0.056 C 
ENDBRANCH  17  18
ENDBRANCH   9  10
BRANCH   8  31
ATOM     31  N   UNL     1      41.030  66.330  59.869  1.00  0.00    -0.299 N 
ATOM     32  C   UNL     1      42.160  67.116  59.789  1.00  0.00    +0.319 C 
ATOM     33  O   UNL     1      43.308  66.810  60.079  1.00  0.00    -0.248 OA
ATOM     34  N   UNL     1      41.837  68.378  59.317  1.00  0.00    -0.338 N 
ATOM     35  H   UNL     1      40.142  66.813  59.786  1.00  0.00    +0.172 HD
ATOM     36  H   UNL     1      40.984  68.463  58.784  1.00  0.00    +0.165 HD
BRANCH  34  37
ATOM     37  C   UNL     1      42.862  69.374  59.083  1.00  0.00    +0.114 C 
ATOM     38  C   UNL     1      42.272  70.712  58.677  1.00  0.00    +0.027 C 
ENDBRANCH  34  37
ENDBRANCH   8  31
TORSDOF 4
ENDMDL
MODEL 4
REMARK VINA RESULT:    -8.634      2.819      9.698
REMARK INTER + INTRA:         -11.852
REMARK INTER:                 -10.853
REMARK INTRA:                  -0.999
REMARK UNBOUND:                -1.200
REMARK SMILES CCNC(=O)Nc1sc2ccccc2c1C(=O)N1CCC(N2CCC[C@@]3(C2)CC(C)(C)OC3=O)CC1
REMARK SMILES IDX 14 1 13 2 12 3 11 4 10 5 9 6 8 7 7 8 15 9 16 10 18 11 17 12
REMARK SMILES IDX 19 13 36 14 20 15 35 16 21 17 22 18 23 19 27 20 24 21 26 22
REMARK SMILES IDX 25 23 33 24 28 25 34 26 32 27 29 28 30 29 31 30 6 31 4 32
REMARK SMILES IDX 5 33 3 34 2 37 1 38
REMARK H PARENT 6 35 3 36
REMARK INDEX MAP 1 1 2 2 3 3 4 4 5 5 6 6 7 7 8 8 13 9 14 10 15 11 16 12 17 13
REMARK INDEX MAP 19 14 18 15 20 16 21 17 22 18 23 19 26 20 24 21 27 22 25 23
REMARK INDEX MAP 28 24 31 25 29 26 30 27 32 28 33 29 34 30 9 31 10 32 11 33
REMARK INDEX MAP 12 34 41 35 42 36 35 37 36 38
ROOT
ATOM      1  C   UNL     1      38.021  66.485  53.573  1.00  0.00    +0.007 A 
ATOM      2  C   UNL     1      39.181  66.437  54.391  1.00  0.00    +0.010 A 
ATOM      3  C   UNL     1      40.145  67.448  54.331  1.00  0.00    +0.001 A 
ATOM      4  C   UNL     1      39.977  68.523  53.471  1.00  0.00    +0.002 A 
ATOM      5  C   UNL     1      38.839  68.613  52.667  1.00  0.00    +0.020 A 
ATOM      6  C   UNL     1      37.868  67.595  52.738  1.00  0.00    +0.037 A 
ATOM      7  S   UNL     1      36.389  67.524  51.872  1.00  0.00    -0.117 S 
ATOM      8  C   UNL     1      35.911  66.090  52.627  1.00  0.00    +0.110 A 
ATOM      9  C   UNL     1      36.907  65.567  53.436  1.00  0.00    +0.082 A 
ENDROOT
BRANCH   9  10
ATOM     10  C   UNL     1      36.752  64.271  54.096  1.00  0.00    +0.257 C 
ATOM     11  N   UNL     1      36.488  64.261  55.470  1.00  0.00    -0.338 N 
ATOM     12  O   UNL     1      36.918  63.230  53.461  1.00  0.00    -0.269 OA
ATOM     13  C   UNL     1      36.836  65.365  56.365  1.00  0.00    +0.121 C 
ATOM     14  C   UNL     1      36.234  62.990  56.122  1.00  0.00    +0.121 C 
ATOM     15  C   UNL     1      37.350  64.881  57.729  1.00  0.00    +0.041 C 
ATOM     16  C   UNL     1      37.471  62.507  56.872  1.00  0.00    +0.041 C 
ATOM     17  C   UNL     1      38.267  63.650  57.565  1.00  0.00    +0.060 C 
BRANCH  17  18
ATOM     18  N   UNL     1      38.874  63.158  58.833  1.00  0.00    -0.299 NA
ATOM     19  C   UNL     1      39.406  61.791  58.681  1.00  0.00    +0.085 C 
ATOM     20  C   UNL     1      39.955  64.040  59.334  1.00  0.00    +0.103 C 
ATOM     21  C   UNL     1      39.731  61.179  60.044  1.00  0.00    +0.017 C 
ATOM     22  C   UNL     1      40.784  63.463  60.508  1.00  0.00    +0.084 C 
ATOM     23  C   UNL     1      40.150  62.200  61.101  1.00  0.00    +0.021 C 
ATOM     24  C   UNL     1      42.207  63.209  60.045  1.00  0.00    +0.314 C 
ATOM     25  C   UNL     1      41.031  64.491  61.620  1.00  0.00    +0.068 C 
ATOM     26  O   UNL     1      42.578  62.278  59.349  1.00  0.00    -0.252 OA
ATOM     27  O   UNL     1      43.049  64.190  60.484  1.00  0.00    -0.459 OA
ATOM     28  C   UNL     1      42.336  65.175  61.240  1.00  0.00    +0.108 C 
ATOM     29  C   UNL     1      42.142  66.423  60.377  1.00  0.00    +0.056 C 
ATOM     30  C   UNL     1      43.164  65.526  62.476  1.00  0.00    +0.056 C 
ENDBRANCH  17  18
ENDBRANCH   9  10
BRANCH   8  31
ATOM     31  N   UNL     1      34.667  65.520  52.402  1.00  0.00    -0.299 N 
ATOM     32  C   UNL     1      34.329  64.587  51.445  1.00  0.00    +0.319 C 
ATOM     33  O   UNL     1      35.057  64.076  50.606  1.00  0.00    -0.248 OA
ATOM     34  N   UNL     1      32.983  64.269  51.537  1.00  0.00    -0.338 N 
ATOM     35  H   UNL     1      33.894  65.981  52.870  1.00  0.00    +0.172 HD
ATOM     36  H   UNL     1      32.532  64.439  52.423  1.00  0.00    +0.165 HD
BRANCH  34  37
ATOM     37  C   UNL     1      32.394  63.262  50.679  1.00  0.00    +0.114 C 
ATOM     38  C   UNL     1      31.757  63.870  49.443  1.00  0.00    +0.027 C 
ENDBRANCH  34  37
ENDBRANCH   8  31
TORSDOF 4
ENDMDL
MODEL 5
REMARK VINA RESULT:    -8.624      2.951      9.331
REMARK INTER + INTRA:         -11.840
REMARK INTER:                 -10.961
REMARK INTRA:                  -0.878
REMARK UNBOUND:                -1.200
REMARK SMILES CCNC(=O)Nc1sc2ccccc2c1C(=O)N1CCC(N2CCC[C@@]3(C2)CC(C)(C)OC3=O)CC1
REMARK SMILES IDX 14 1 13 2 12 3 11 4 10 5 9 6 8 7 7 8 15 9 16 10 18 11 17 12
REMARK SMILES IDX 19 13 36 14 20 15 35 16 21 17 22 18 23 19 27 20 24 21 26 22
REMARK SMILES IDX 25 23 33 24 28 25 34 26 32 27 29 28 30 29 31 30 6 31 4 32
REMARK SMILES IDX 5 33 3 34 2 37 1 38
REMARK H PARENT 6 35 3 36
REMARK INDEX MAP 1 1 2 2 3 3 4 4 5 5 6 6 7 7 8 8 13 9 14 10 15 11 16 12 17 13
REMARK INDEX MAP 19 14 18 15 20 16 21 17 22 18 23 19 26 20 24 21 27 22 25 23
REMARK INDEX MAP 28 24 31 25 29 26 30 27 32 28 33 29 34 30 9 31 10 32 11 33
REMARK INDEX MAP 12 34 41 35 42 36 35 37 36 38
ROOT
ATOM      1  C   UNL     1      31.904  61.894  50.719  1.00  0.00    +0.007 A 
ATOM      2  C   UNL     1      31.063  62.530  51.670  1.00  0.00    +0.010 A 
ATOM      3  C   UNL     1      29.868  61.934  52.085  1.00  0.00    +0.001 A 
ATOM      4  C   UNL     1      29.488  60.702  51.576  1.00  0.00    +0.002 A 
ATOM      5  C   UNL     1      30.300  60.038  50.654  1.00  0.00    +0.020 A 
ATOM      6  C   UNL     1      31.507  60.640  50.246  1.00  0.00    +0.037 A 
ATOM      7  S   UNL     1      32.664  59.989  49.159  1.00  0.00    -0.117 S 
ATOM      8  C   UNL     1      33.714  61.298  49.351  1.00  0.00    +0.110 A 
ATOM      9  C   UNL     1      33.160  62.307  50.122  1.00  0.00    +0.082 A 
ENDROOT
BRANCH   9  10
ATOM     10  C   UNL     1      33.849  63.582  50.322  1.00  0.00    +0.257 C 
ATOM     11  N   UNL     1      35.065  63.569  51.012  1.00  0.00    -0.338 N 
ATOM     12  O   UNL     1      33.328  64.631  49.947  1.00  0.00    -0.269 OA
ATOM     13  C   UNL     1      35.448  62.513  51.951  1.00  0.00    +0.121 C 
ATOM     14  C   UNL     1      35.810  64.807  51.135  1.00  0.00    +0.121 C 
ATOM     15  C   UNL     1      36.187  63.056  53.182  1.00  0.00    +0.041 C 
ATOM     16  C   UNL     1      35.616  65.425  52.516  1.00  0.00    +0.041 C 
ATOM     17  C   UNL     1      35.554  64.379  53.664  1.00  0.00    +0.060 C 
BRANCH  17  18
ATOM     18  N   UNL     1      36.160  64.939  54.904  1.00  0.00    -0.299 NA
ATOM     19  C   UNL     1      36.327  63.901  55.938  1.00  0.00    +0.085 C 
ATOM     20  C   UNL     1      37.470  65.589  54.662  1.00  0.00    +0.103 C 
ATOM     21  C   UNL     1      36.643  64.531  57.295  1.00  0.00    +0.017 C 
ATOM     22  C   UNL     1      38.260  65.974  55.938  1.00  0.00    +0.084 C 
ATOM     23  C   UNL     1      37.409  65.850  57.206  1.00  0.00    +0.021 C 
ATOM     24  C   UNL     1      39.519  65.133  56.025  1.00  0.00    +0.314 C 
ATOM     25  C   UNL     1      38.868  67.381  55.856  1.00  0.00    +0.068 C 
ATOM     26  O   UNL     1      39.577  63.962  56.366  1.00  0.00    -0.252 OA
ATOM     27  O   UNL     1      40.616  65.848  55.639  1.00  0.00    -0.459 OA
ATOM     28  C   UNL     1      40.249  67.177  55.252  1.00  0.00    +0.108 C 
ATOM     29  C   UNL     1      40.268  67.275  53.725  1.00  0.00    +0.056 C 
ATOM     30  C   UNL     1      41.268  68.150  55.844  1.00  0.00    +0.056 C 
ENDBRANCH  17  18
ENDBRANCH   9  10
BRANCH   8  31
ATOM     31  N   UNL     1      34.966  61.329  48.755  1.00  0.00    -0.299 N 
ATOM     32  C   UNL     1      35.256  61.343  47.407  1.00  0.00    +0.319 C 
ATOM     33  O   UNL     1      34.469  61.331  46.471  1.00  0.00    -0.248 OA
ATOM     34  N   UNL     1      36.627  61.369  47.209  1.00  0.00    -0.338 N 
ATOM     35  H   UNL     1      35.742  61.132  49.377  1.00  0.00    +0.172 HD
ATOM     36  H   UNL     1      37.193  61.719  47.968  1.00  0.00    +0.165 HD
BRANCH  34  37
ATOM     37  C   UNL     1      37.189  61.451  45.876  1.00  0.00    +0.114 C 
ATOM     38  C   UNL     1      38.216  60.362  45.625  1.00  0.00    +0.027 C 
ENDBRANCH  34  37
ENDBRANCH   8  31
TORSDOF 4
ENDMDL
MODEL 6
REMARK VINA RESULT:    -8.525      3.789      9.718
REMARK INTER + INTRA:         -11.718
REMARK INTER:                 -10.350
REMARK INTRA:                  -1.368
REMARK UNBOUND:                -1.200
REMARK SMILES CCNC(=O)Nc1sc2ccccc2c1C(=O)N1CCC(N2CCC[C@@]3(C2)CC(C)(C)OC3=O)CC1
REMARK SMILES IDX 14 1 13 2 12 3 11 4 10 5 9 6 8 7 7 8 15 9 16 10 18 11 17 12
REMARK SMILES IDX 19 13 36 14 20 15 35 16 21 17 22 18 23 19 27 20 24 21 26 22
REMARK SMILES IDX 25 23 33 24 28 25 34 26 32 27 29 28 30 29 31 30 6 31 4 32
REMARK SMILES IDX 5 33 3 34 2 37 1 38
REMARK H PARENT 6 35 3 36
REMARK INDEX MAP 1 1 2 2 3 3 4 4 5 5 6 6 7 7 8 8 13 9 14 10 15 11 16 12 17 13
REMARK INDEX MAP 19 14 18 15 20 16 21 17 22 18 23 19 26 20 24 21 27 22 25 23
REMARK INDEX MAP 28 24 31 25 29 26 30 27 32 28 33 29 34 30 9 31 10 32 11 33
REMARK INDEX MAP 12 34 41 35 42 36 35 37 36 38
ROOT
ATOM      1  C   UNL     1      34.008  59.094  47.468  1.00  0.00    +0.007 A 
ATOM      2  C   UNL     1      33.255  59.023  48.671  1.00  0.00    +0.010 A 
ATOM      3  C   UNL     1      32.750  57.804  49.132  1.00  0.00    +0.001 A 
ATOM      4  C   UNL     1      32.985  56.637  48.422  1.00  0.00    +0.002 A 
ATOM      5  C   UNL     1      33.738  56.665  47.246  1.00  0.00    +0.020 A 
ATOM      6  C   UNL     1      34.250  57.896  46.790  1.00  0.00    +0.037 A 
ATOM      7  S   UNL     1      35.223  58.152  45.401  1.00  0.00    -0.117 S 
ATOM      8  C   UNL     1      35.390  59.805  45.711  1.00  0.00    +0.110 A 
ATOM      9  C   UNL     1      34.610  60.218  46.779  1.00  0.00    +0.082 A 
ENDROOT
BRANCH   9  10
ATOM     10  C   UNL     1      34.512  61.630  47.151  1.00  0.00    +0.257 C 
ATOM     11  N   UNL     1      35.412  62.122  48.102  1.00  0.00    -0.338 N 
ATOM     12  O   UNL     1      33.617  62.332  46.681  1.00  0.00    -0.269 OA
ATOM     13  C   UNL     1      36.085  61.276  49.088  1.00  0.00    +0.121 C 
ATOM     14  C   UNL     1      35.393  63.540  48.411  1.00  0.00    +0.121 C 
ATOM     15  C   UNL     1      36.199  61.947  50.464  1.00  0.00    +0.041 C 
ATOM     16  C   UNL     1      34.654  63.803  49.719  1.00  0.00    +0.041 C 
ATOM     17  C   UNL     1      34.908  62.721  50.807  1.00  0.00    +0.060 C 
BRANCH  17  18
ATOM     18  N   UNL     1      34.900  63.342  52.161  1.00  0.00    -0.299 NA
ATOM     19  C   UNL     1      35.437  62.420  53.179  1.00  0.00    +0.085 C 
ATOM     20  C   UNL     1      35.661  64.613  52.216  1.00  0.00    +0.103 C 
ATOM     21  C   UNL     1      35.133  62.929  54.588  1.00  0.00    +0.017 C 
ATOM     22  C   UNL     1      35.893  65.179  53.640  1.00  0.00    +0.084 C 
ATOM     23  C   UNL     1      35.056  64.451  54.697  1.00  0.00    +0.021 C 
ATOM     24  C   UNL     1      37.374  65.129  53.967  1.00  0.00    +0.314 C 
ATOM     25  C   UNL     1      35.638  66.690  53.725  1.00  0.00    +0.068 C 
ATOM     26  O   UNL     1      38.005  64.133  54.281  1.00  0.00    -0.252 OA
ATOM     27  O   UNL     1      37.948  66.362  53.839  1.00  0.00    -0.459 OA
ATOM     28  C   UNL     1      36.983  67.333  53.419  1.00  0.00    +0.108 C 
ATOM     29  C   UNL     1      37.192  67.634  51.934  1.00  0.00    +0.056 C 
ATOM     30  C   UNL     1      37.193  68.606  54.238  1.00  0.00    +0.056 C 
ENDBRANCH  17  18
ENDBRANCH   9  10
BRANCH   8  31
ATOM     31  N   UNL     1      36.199  60.620  44.934  1.00  0.00    -0.299 N 
ATOM     32  C   UNL     1      37.447  61.115  45.251  1.00  0.00    +0.319 C 
ATOM     33  O   UNL     1      38.087  60.933  46.277  1.00  0.00    -0.248 OA
ATOM     34  N   UNL     1      37.933  61.896  44.215  1.00  0.00    -0.338 N 
ATOM     35  H   UNL     1      35.740  61.042  44.135  1.00  0.00    +0.172 HD
ATOM     36  H   UNL     1      37.545  61.733  43.298  1.00  0.00    +0.165 HD
BRANCH  34  37
ATOM     37  C   UNL     1      39.256  62.481  44.277  1.00  0.00    +0.114 C 
ATOM     38  C   UNL     1      39.223  63.903  44.806  1.00  0.00    +0.027 C 
ENDBRANCH  34  37
ENDBRANCH   8  31
TORSDOF 4
ENDMDL
MODEL 7
REMARK VINA RESULT:    -8.236      3.560      6.157
REMARK INTER + INTRA:         -11.361
REMARK INTER:                 -10.236
REMARK INTRA:                  -1.126
REMARK UNBOUND:                -1.200
REMARK SMILES CCNC(=O)Nc1sc2ccccc2c1C(=O)N1CCC(N2CCC[C@@]3(C2)CC(C)(C)OC3=O)CC1
REMARK SMILES IDX 14 1 13 2 12 3 11 4 10 5 9 6 8 7 7 8 15 9 16 10 18 11 17 12
REMARK SMILES IDX 19 13 36 14 20 15 35 16 21 17 22 18 23 19 27 20 24 21 26 22
REMARK SMILES IDX 25 23 33 24 28 25 34 26 32 27 29 28 30 29 31 30 6 31 4 32
REMARK SMILES IDX 5 33 3 34 2 37 1 38
REMARK H PARENT 6 35 3 36
REMARK INDEX MAP 1 1 2 2 3 3 4 4 5 5 6 6 7 7 8 8 13 9 14 10 15 11 16 12 17 13
REMARK INDEX MAP 19 14 18 15 20 16 21 17 22 18 23 19 26 20 24 21 27 22 25 23
REMARK INDEX MAP 28 24 31 25 29 26 30 27 32 28 33 29 34 30 9 31 10 32 11 33
REMARK INDEX MAP 12 34 41 35 42 36 35 37 36 38
ROOT
ATOM      1  C   UNL     1      43.029  66.094  58.124  1.00  0.00    +0.007 A 
ATOM      2  C   UNL     1      42.623  67.024  57.130  1.00  0.00    +0.010 A 
ATOM      3  C   UNL     1      43.565  67.672  56.325  1.00  0.00    +0.001 A 
ATOM      4  C   UNL     1      44.917  67.409  56.482  1.00  0.00    +0.002 A 
ATOM      5  C   UNL     1      45.351  66.486  57.436  1.00  0.00    +0.020 A 
ATOM      6  C   UNL     1      44.396  65.831  58.239  1.00  0.00    +0.037 A 
ATOM      7  S   UNL     1      44.704  64.643  59.438  1.00  0.00    -0.117 S 
ATOM      8  C   UNL     1      43.061  64.418  59.765  1.00  0.00    +0.110 A 
ATOM      9  C   UNL     1      42.263  65.322  59.083  1.00  0.00    +0.082 A 
ENDROOT
BRANCH   9  10
ATOM     10  C   UNL     1      40.818  65.383  59.305  1.00  0.00    +0.257 C 
ATOM     11  N   UNL     1      39.983  64.766  58.368  1.00  0.00    -0.338 N 
ATOM     12  O   UNL     1      40.365  66.019  60.256  1.00  0.00    -0.269 OA
ATOM     13  C   UNL     1      40.378  64.509  56.982  1.00  0.00    +0.121 C 
ATOM     14  C   UNL     1      38.555  64.731  58.621  1.00  0.00    +0.121 C 
ATOM     15  C   UNL     1      39.234  64.746  55.987  1.00  0.00    +0.041 C 
ATOM     16  C   UNL     1      37.832  65.799  57.807  1.00  0.00    +0.041 C 
ATOM     17  C   UNL     1      38.414  65.995  56.379  1.00  0.00    +0.060 C 
BRANCH  17  18
ATOM     18  N   UNL     1      37.327  66.346  55.423  1.00  0.00    -0.299 NA
ATOM     19  C   UNL     1      37.853  67.073  54.252  1.00  0.00    +0.085 C 
ATOM     20  C   UNL     1      36.569  65.163  54.952  1.00  0.00    +0.103 C 
ATOM     21  C   UNL     1      36.716  67.703  53.447  1.00  0.00    +0.017 C 
ATOM     22  C   UNL     1      35.592  65.431  53.781  1.00  0.00    +0.084 C 
ATOM     23  C   UNL     1      35.402  66.928  53.515  1.00  0.00    +0.021 C 
ATOM     24  C   UNL     1      36.075  64.700  52.542  1.00  0.00    +0.314 C 
ATOM     25  C   UNL     1      34.226  64.762  53.985  1.00  0.00    +0.068 C 
ATOM     26  O   UNL     1      37.001  65.043  51.824  1.00  0.00    -0.252 OA
ATOM     27  O   UNL     1      35.354  63.560  52.330  1.00  0.00    -0.459 OA
ATOM     28  C   UNL     1      34.363  63.386  53.350  1.00  0.00    +0.108 C 
ATOM     29  C   UNL     1      34.836  62.307  54.326  1.00  0.00    +0.056 C 
ATOM     30  C   UNL     1      33.060  62.944  52.684  1.00  0.00    +0.056 C 
ENDBRANCH  17  18
ENDBRANCH   9  10
BRANCH   8  31
ATOM     31  N   UNL     1      42.614  63.448  60.650  1.00  0.00    -0.299 N 
ATOM     32  C   UNL     1      42.046  62.229  60.346  1.00  0.00    +0.319 C 
ATOM     33  O   UNL     1      41.824  61.761  59.238  1.00  0.00    -0.248 OA
ATOM     34  N   UNL     1      41.728  61.543  61.507  1.00  0.00    -0.338 N 
ATOM     35  H   UNL     1      42.529  63.754  61.613  1.00  0.00    +0.172 HD
ATOM     36  H   UNL     1      42.229  61.802  62.344  1.00  0.00    +0.165 HD
BRANCH  34  37
ATOM     37  C   UNL     1      41.174  60.206  61.457  1.00  0.00    +0.114 C 
ATOM     38  C   UNL     1      39.657  60.221  61.413  1.00  0.00    +0.027 C 
ENDBRANCH  34  37
ENDBRANCH   8  31
TORSDOF 4
ENDMDL
MODEL 8
REMARK VINA RESULT:    -8.130      4.066     10.234
REMARK INTER + INTRA:         -11.231
REMARK INTER:                  -9.411
REMARK INTRA:                  -1.820
REMARK UNBOUND:                -1.200
REMARK SMILES CCNC(=O)Nc1sc2ccccc2c1C(=O)N1CCC(N2CCC[C@@]3(C2)CC(C)(C)OC3=O)CC1
REMARK SMILES IDX 14 1 13 2 12 3 11 4 10 5 9 6 8 7 7 8 15 9 16 10 18 11 17 12
REMARK SMILES IDX 19 13 36 14 20 15 35 16 21 17 22 18 23 19 27 20 24 21 26 22
REMARK SMILES IDX 25 23 33 24 28 25 34 26 32 27 29 28 30 29 31 30 6 31 4 32
REMARK SMILES IDX 5 33 3 34 2 37 1 38
REMARK H PARENT 6 35 3 36
REMARK INDEX MAP 1 1 2 2 3 3 4 4 5 5 6 6 7 7 8 8 13 9 14 10 15 11 16 12 17 13
REMARK INDEX MAP 19 14 18 15 20 16 21 17 22 18 23 19 26 20 24 21 27 22 25 23
REMARK INDEX MAP 28 24 31 25 29 26 30 27 32 28 33 29 34 30 9 31 10 32 11 33
REMARK INDEX MAP 12 34 41 35 42 36 35 37 36 38
ROOT
ATOM      1  C   UNL     1      35.956  64.151  53.922  1.00  0.00    +0.007 A 
ATOM      2  C   UNL     1      35.339  62.877  54.027  1.00  0.00    +0.010 A 
ATOM      3  C   UNL     1      33.988  62.704  53.710  1.00  0.00    +0.001 A 
ATOM      4  C   UNL     1      33.229  63.781  53.277  1.00  0.00    +0.002 A 
ATOM      5  C   UNL     1      33.808  65.044  53.142  1.00  0.00    +0.020 A 
ATOM      6  C   UNL     1      35.172  65.210  53.457  1.00  0.00    +0.037 A 
ATOM      7  S   UNL     1      36.087  66.655  53.329  1.00  0.00    -0.117 S 
ATOM      8  C   UNL     1      37.519  65.898  53.812  1.00  0.00    +0.110 A 
ATOM      9  C   UNL     1      37.310  64.587  54.207  1.00  0.00    +0.082 A 
ENDROOT
BRANCH   9  10
ATOM     10  C   UNL     1      38.391  63.778  54.771  1.00  0.00    +0.257 C 
ATOM     11  N   UNL     1      38.335  63.466  56.133  1.00  0.00    -0.338 N 
ATOM     12  O   UNL     1      39.347  63.449  54.070  1.00  0.00    -0.269 OA
ATOM     13  C   UNL     1      37.591  64.259  57.112  1.00  0.00    +0.121 C 
ATOM     14  C   UNL     1      39.345  62.585  56.689  1.00  0.00    +0.121 C 
ATOM     15  C   UNL     1      38.329  64.391  58.452  1.00  0.00    +0.041 C 
ATOM     16  C   UNL     1      40.410  63.380  57.436  1.00  0.00    +0.041 C 
ATOM     17  C   UNL     1      39.843  64.593  58.227  1.00  0.00    +0.060 C 
BRANCH  17  18
ATOM     18  N   UNL     1      40.630  64.808  59.473  1.00  0.00    -0.299 NA
ATOM     19  C   UNL     1      41.050  63.527  60.073  1.00  0.00    +0.085 C 
ATOM     20  C   UNL     1      41.829  65.653  59.259  1.00  0.00    +0.103 C 
ATOM     21  C   UNL     1      41.569  63.736  61.495  1.00  0.00    +0.017 C 
ATOM     22  C   UNL     1      42.813  65.713  60.454  1.00  0.00    +0.084 C 
ATOM     23  C   UNL     1      42.220  65.099  61.726  1.00  0.00    +0.021 C 
ATOM     24  C   UNL     1      44.119  65.043  60.067  1.00  0.00    +0.314 C 
ATOM     25  C   UNL     1      43.305  67.137  60.744  1.00  0.00    +0.068 C 
ATOM     26  O   UNL     1      44.312  63.840  59.992  1.00  0.00    -0.252 OA
ATOM     27  O   UNL     1      45.078  65.969  59.772  1.00  0.00    -0.459 OA
ATOM     28  C   UNL     1      44.562  67.298  59.903  1.00  0.00    +0.108 C 
ATOM     29  C   UNL     1      44.294  67.868  58.508  1.00  0.00    +0.056 C 
ATOM     30  C   UNL     1      45.608  68.153  60.617  1.00  0.00    +0.056 C 
ENDBRANCH  17  18
ENDBRANCH   9  10
BRANCH   8  31
ATOM     31  N   UNL     1      38.734  66.566  53.827  1.00  0.00    -0.299 N 
ATOM     32  C   UNL     1      39.361  67.149  54.908  1.00  0.00    +0.319 C 
ATOM     33  O   UNL     1      38.970  67.192  56.066  1.00  0.00    -0.248 OA
ATOM     34  N   UNL     1      40.560  67.723  54.518  1.00  0.00    -0.338 N 
ATOM     35  H   UNL     1      39.101  66.808  52.913  1.00  0.00    +0.172 HD
ATOM     36  H   UNL     1      40.983  67.370  53.673  1.00  0.00    +0.165 HD
BRANCH  34  37
ATOM     37  C   UNL     1      41.439  68.347  55.485  1.00  0.00    +0.114 C 
ATOM     38  C   UNL     1      41.421  69.860  55.375  1.00  0.00    +0.027 C 
ENDBRANCH  34  37
ENDBRANCH   8  31
TORSDOF 4
ENDMDL
MODEL 9
REMARK VINA RESULT:    -8.125      3.802      8.293
REMARK INTER + INTRA:         -11.225
REMARK INTER:                  -9.944
REMARK INTRA:                  -1.282
REMARK UNBOUND:                -1.200
REMARK SMILES CCNC(=O)Nc1sc2ccccc2c1C(=O)N1CCC(N2CCC[C@@]3(C2)CC(C)(C)OC3=O)CC1
REMARK SMILES IDX 14 1 13 2 12 3 11 4 10 5 9 6 8 7 7 8 15 9 16 10 18 11 17 12
REMARK SMILES IDX 19 13 36 14 20 15 35 16 21 17 22 18 23 19 27 20 24 21 26 22
REMARK SMILES IDX 25 23 33 24 28 25 34 26 32 27 29 28 30 29 31 30 6 31 4 32
REMARK SMILES IDX 5 33 3 34 2 37 1 38
REMARK H PARENT 6 35 3 36
REMARK INDEX MAP 1 1 2 2 3 3 4 4 5 5 6 6 7 7 8 8 13 9 14 10 15 11 16 12 17 13
REMARK INDEX MAP 19 14 18 15 20 16 21 17 22 18 23 19 26 20 24 21 27 22 25 23
REMARK INDEX MAP 28 24 31 25 29 26 30 27 32 28 33 29 34 30 9 31 10 32 11 33
REMARK INDEX MAP 12 34 41 35 42 36 35 37 36 38
ROOT
ATOM      1  C   UNL     1      36.671  63.767  53.602  1.00  0.00    +0.007 A 
ATOM      2  C   UNL     1      36.766  64.381  52.325  1.00  0.00    +0.010 A 
ATOM      3  C   UNL     1      35.730  64.265  51.393  1.00  0.00    +0.001 A 
ATOM      4  C   UNL     1      34.584  63.551  51.708  1.00  0.00    +0.002 A 
ATOM      5  C   UNL     1      34.447  62.952  52.961  1.00  0.00    +0.020 A 
ATOM      6  C   UNL     1      35.492  63.078  53.898  1.00  0.00    +0.037 A 
ATOM      7  S   UNL     1      35.518  62.457  55.498  1.00  0.00    -0.117 S 
ATOM      8  C   UNL     1      37.028  63.137  55.833  1.00  0.00    +0.110 A 
ATOM      9  C   UNL     1      37.599  63.723  54.715  1.00  0.00    +0.082 A 
ENDROOT
BRANCH   9  10
ATOM     10  C   UNL     1      38.955  64.271  54.749  1.00  0.00    +0.257 C 
ATOM     11  N   UNL     1      39.114  65.605  55.139  1.00  0.00    -0.338 N 
ATOM     12  O   UNL     1      39.908  63.587  54.379  1.00  0.00    -0.269 OA
ATOM     13  C   UNL     1      38.052  66.607  55.035  1.00  0.00    +0.121 C 
ATOM     14  C   UNL     1      40.457  66.137  55.273  1.00  0.00    +0.121 C 
ATOM     15  C   UNL     1      38.575  67.980  54.591  1.00  0.00    +0.041 C 
ATOM     16  C   UNL     1      40.833  66.979  54.057  1.00  0.00    +0.041 C 
ATOM     17  C   UNL     1      39.657  67.830  53.500  1.00  0.00    +0.060 C 
BRANCH  17  18
ATOM     18  N   UNL     1      40.167  69.118  52.953  1.00  0.00    -0.299 NA
ATOM     19  C   UNL     1      40.265  69.078  51.483  1.00  0.00    +0.085 C 
ATOM     20  C   UNL     1      39.336  70.280  53.348  1.00  0.00    +0.103 C 
ATOM     21  C   UNL     1      41.078  70.262  50.959  1.00  0.00    +0.017 C 
ATOM     22  C   UNL     1      39.671  71.606  52.618  1.00  0.00    +0.084 C 
ATOM     23  C   UNL     1      40.979  71.516  51.825  1.00  0.00    +0.021 C 
ATOM     24  C   UNL     1      38.505  72.003  51.733  1.00  0.00    +0.314 C 
ATOM     25  C   UNL     1      39.722  72.808  53.570  1.00  0.00    +0.068 C 
ATOM     26  O   UNL     1      38.222  71.504  50.655  1.00  0.00    -0.252 OA
ATOM     27  O   UNL     1      37.766  72.996  52.308  1.00  0.00    -0.459 OA
ATOM     28  C   UNL     1      38.303  73.357  53.586  1.00  0.00    +0.108 C 
ATOM     29  C   UNL     1      37.427  72.753  54.684  1.00  0.00    +0.056 C 
ATOM     30  C   UNL     1      38.294  74.881  53.698  1.00  0.00    +0.056 C 
ENDBRANCH  17  18
ENDBRANCH   9  10
BRANCH   8  31
ATOM     31  N   UNL     1      37.605  63.061  57.092  1.00  0.00    -0.299 N 
ATOM     32  C   UNL     1      38.402  62.053  57.593  1.00  0.00    +0.319 C 
ATOM     33  O   UNL     1      38.759  61.030  57.027  1.00  0.00    -0.248 OA
ATOM     34  N   UNL     1      38.780  62.340  58.895  1.00  0.00    -0.338 N 
ATOM     35  H   UNL     1      37.245  63.725  57.769  1.00  0.00    +0.172 HD
ATOM     36  H   UNL     1      38.756  63.309  59.176  1.00  0.00    +0.165 HD
BRANCH  34  37
ATOM     37  C   UNL     1      39.674  61.464  59.623  1.00  0.00    +0.114 C 
ATOM     38  C   UNL     1      40.538  62.228  60.610  1.00  0.00    +0.027 C 
ENDBRANCH  34  37
ENDBRANCH   8  31
TORSDOF 4
ENDMDL
MODEL 10
REMARK VINA RESULT:    -7.978      3.156      9.337
REMARK INTER + INTRA:         -11.043
REMARK INTER:                 -10.805
REMARK INTRA:                  -0.238
REMARK UNBOUND:                -1.200
REMARK SMILES CCNC(=O)Nc1sc2ccccc2c1C(=O)N1CCC(N2CCC[C@@]3(C2)CC(C)(C)OC3=O)CC1
REMARK SMILES IDX 14 1 13 2 12 3 11 4 10 5 9 6 8 7 7 8 15 9 16 10 18 11 17 12
REMARK SMILES IDX 19 13 36 14 20 15 35 16 21 17 22 18 23 19 27 20 24 21 26 22
REMARK SMILES IDX 25 23 33 24 28 25 34 26 32 27 29 28 30 29 31 30 6 31 4 32
REMARK SMILES IDX 5 33 3 34 2 37 1 38
REMARK H PARENT 6 35 3 36
REMARK INDEX MAP 1 1 2 2 3 3 4 4 5 5 6 6 7 7 8 8 13 9 14 10 15 11 16 12 17 13
REMARK INDEX MAP 19 14 18 15 20 16 21 17 22 18 23 19 26 20 24 21 27 22 25 23
REMARK INDEX MAP 28 24 31 25 29 26 30 27 32 28 33 29 34 30 9 31 10 32 11 33
REMARK INDEX MAP 12 34 41 35 42 36 35 37 36 38
ROOT
ATOM      1  C   UNL     1      33.369  60.023  48.451  1.00  0.00    +0.007 A 
ATOM      2  C   UNL     1      32.630  59.350  49.459  1.00  0.00    +0.010 A 
ATOM      3  C   UNL     1      32.447  57.964  49.412  1.00  0.00    +0.001 A 
ATOM      4  C   UNL     1      32.995  57.223  48.376  1.00  0.00    +0.002 A 
ATOM      5  C   UNL     1      33.744  57.849  47.379  1.00  0.00    +0.020 A 
ATOM      6  C   UNL     1      33.931  59.244  47.437  1.00  0.00    +0.037 A 
ATOM      7  S   UNL     1      34.840  60.205  46.344  1.00  0.00    -0.117 S 
ATOM      8  C   UNL     1      34.564  61.623  47.220  1.00  0.00    +0.110 A 
ATOM      9  C   UNL     1      33.676  61.429  48.266  1.00  0.00    +0.082 A 
ENDROOT
BRANCH   9  10
ATOM     10  C   UNL     1      33.205  62.545  49.085  1.00  0.00    +0.257 C 
ATOM     11  N   UNL     1      34.163  63.361  49.695  1.00  0.00    -0.338 N 
ATOM     12  O   UNL     1      32.000  62.707  49.276  1.00  0.00    -0.269 OA
ATOM     13  C   UNL     1      35.528  62.922  49.988  1.00  0.00    +0.121 C 
ATOM     14  C   UNL     1      33.718  64.530  50.431  1.00  0.00    +0.121 C 
ATOM     15  C   UNL     1      36.042  63.444  51.337  1.00  0.00    +0.041 C 
ATOM     16  C   UNL     1      33.727  64.264  51.933  1.00  0.00    +0.041 C 
ATOM     17  C   UNL     1      34.928  63.397  52.405  1.00  0.00    +0.060 C 
BRANCH  17  18
ATOM     18  N   UNL     1      35.359  63.815  53.768  1.00  0.00    -0.299 NA
ATOM     19  C   UNL     1      35.697  62.650  54.607  1.00  0.00    +0.085 C 
ATOM     20  C   UNL     1      36.515  64.742  53.747  1.00  0.00    +0.103 C 
ATOM     21  C   UNL     1      35.826  63.055  56.075  1.00  0.00    +0.017 C 
ATOM     22  C   UNL     1      37.161  65.020  55.128  1.00  0.00    +0.084 C 
ATOM     23  C   UNL     1      36.307  64.490  56.285  1.00  0.00    +0.021 C 
ATOM     24  C   UNL     1      38.562  64.440  55.156  1.00  0.00    +0.314 C 
ATOM     25  C   UNL     1      37.469  66.507  55.348  1.00  0.00    +0.068 C 
ATOM     26  O   UNL     1      38.846  63.259  55.282  1.00  0.00    -0.252 OA
ATOM     27  O   UNL     1      39.503  65.416  54.990  1.00  0.00    -0.459 OA
ATOM     28  C   UNL     1      38.884  66.697  54.823  1.00  0.00    +0.108 C 
ATOM     29  C   UNL     1      38.940  67.089  53.346  1.00  0.00    +0.056 C 
ATOM     30  C   UNL     1      39.659  67.717  55.657  1.00  0.00    +0.056 C 
ENDBRANCH  17  18
ENDBRANCH   9  10
BRANCH   8  31
ATOM     31  N   UNL     1      35.154  62.829  46.871  1.00  0.00    -0.299 N 
ATOM     32  C   UNL     1      36.478  63.061  46.566  1.00  0.00    +0.319 C 
ATOM     33  O   UNL     1      37.394  62.251  46.543  1.00  0.00    -0.248 OA
ATOM     34  N   UNL     1      36.678  64.400  46.272  1.00  0.00    -0.338 N 
ATOM     35  H   UNL     1      34.584  63.650  47.042  1.00  0.00    +0.172 HD
ATOM     36  H   UNL     1      35.872  64.928  45.974  1.00  0.00    +0.165 HD
BRANCH  34  37
ATOM     37  C   UNL     1      37.977  64.889  45.859  1.00  0.00    +0.114 C 
ATOM     38  C   UNL     1      38.385  66.135  46.623  1.00  0.00    +0.027 C 
ENDBRANCH  34  37
ENDBRANCH   8  31
TORSDOF 4
ENDMDL
MODEL 11
REMARK VINA RESULT:    -7.886      3.412      5.529
REMARK INTER + INTRA:         -10.930
REMARK INTER:                  -9.604
REMARK INTRA:                  -1.325
REMARK UNBOUND:                -1.200
REMARK SMILES CCNC(=O)Nc1sc2ccccc2c1C(=O)N1CCC(N2CCC[C@@]3(C2)CC(C)(C)OC3=O)CC1
REMARK SMILES IDX 14 1 13 2 12 3 11 4 10 5 9 6 8 7 7 8 15 9 16 10 18 11 17 12
REMARK SMILES IDX 19 13 36 14 20 15 35 16 21 17 22 18 23 19 27 20 24 21 26 22
REMARK SMILES IDX 25 23 33 24 28 25 34 26 32 27 29 28 30 29 31 30 6 31 4 32
REMARK SMILES IDX 5 33 3 34 2 37 1 38
REMARK H PARENT 6 35 3 36
REMARK INDEX MAP 1 1 2 2 3 3 4 4 5 5 6 6 7 7 8 8 13 9 14 10 15 11 16 12 17 13
REMARK INDEX MAP 19 14 18 15 20 16 21 17 22 18 23 19 26 20 24 21 27 22 25 23
REMARK INDEX MAP 28 24 31 25 29 26 30 27 32 28 33 29 34 30 9 31 10 32 11 33
REMARK INDEX MAP 12 34 41 35 42 36 35 37 36 38
ROOT
ATOM      1  C   UNL     1      40.335  68.024  53.779  1.00  0.00    +0.007 A 
ATOM      2  C   UNL     1      40.164  67.907  55.184  1.00  0.00    +0.010 A 
ATOM      3  C   UNL     1      41.265  67.758  56.033  1.00  0.00    +0.001 A 
ATOM      4  C   UNL     1      42.549  67.731  55.512  1.00  0.00    +0.002 A 
ATOM      5  C   UNL     1      42.757  67.863  54.138  1.00  0.00    +0.020 A 
ATOM      6  C   UNL     1      41.643  68.020  53.289  1.00  0.00    +0.037 A 
ATOM      7  S   UNL     1      41.672  68.234  51.587  1.00  0.00    -0.117 S 
ATOM      8  C   UNL     1      39.993  68.400  51.490  1.00  0.00    +0.110 A 
ATOM      9  C   UNL     1      39.372  68.163  52.705  1.00  0.00    +0.082 A 
ENDROOT
BRANCH   9  10
ATOM     10  C   UNL     1      37.914  68.139  52.825  1.00  0.00    +0.257 C 
ATOM     11  N   UNL     1      37.314  66.976  53.317  1.00  0.00    -0.338 N 
ATOM     12  O   UNL     1      37.246  69.098  52.438  1.00  0.00    -0.269 OA
ATOM     13  C   UNL     1      37.943  65.656  53.251  1.00  0.00    +0.121 C 
ATOM     14  C   UNL     1      35.880  66.969  53.535  1.00  0.00    +0.121 C 
ATOM     15  C   UNL     1      36.941  64.538  52.927  1.00  0.00    +0.041 C 
ATOM     16  C   UNL     1      35.159  66.251  52.399  1.00  0.00    +0.041 C 
ATOM     17  C   UNL     1      35.922  65.005  51.865  1.00  0.00    +0.060 C 
BRANCH  17  18
ATOM     18  N   UNL     1      34.956  63.957  51.433  1.00  0.00    -0.299 NA
ATOM     19  C   UNL     1      33.566  64.446  51.497  1.00  0.00    +0.085 C 
ATOM     20  C   UNL     1      35.225  63.456  50.064  1.00  0.00    +0.103 C 
ATOM     21  C   UNL     1      32.576  63.289  51.366  1.00  0.00    +0.017 C 
ATOM     22  C   UNL     1      34.120  62.548  49.467  1.00  0.00    +0.084 C 
ATOM     23  C   UNL     1      33.087  62.126  50.516  1.00  0.00    +0.021 C 
ATOM     24  C   UNL     1      33.469  63.251  48.291  1.00  0.00    +0.314 C 
ATOM     25  C   UNL     1      34.689  61.305  48.769  1.00  0.00    +0.068 C 
ATOM     26  O   UNL     1      32.657  64.160  48.361  1.00  0.00    -0.252 OA
ATOM     27  O   UNL     1      33.930  62.757  47.105  1.00  0.00    -0.459 OA
ATOM     28  C   UNL     1      34.903  61.730  47.324  1.00  0.00    +0.108 C 
ATOM     29  C   UNL     1      36.297  62.298  47.054  1.00  0.00    +0.056 C 
ATOM     30  C   UNL     1      34.618  60.582  46.355  1.00  0.00    +0.056 C 
ENDBRANCH  17  18
ENDBRANCH   9  10
BRANCH   8  31
ATOM     31  N   UNL     1      39.353  68.706  50.298  1.00  0.00    -0.299 N 
ATOM     32  C   UNL     1      39.266  69.936  49.680  1.00  0.00    +0.319 C 
ATOM     33  O   UNL     1      39.736  70.999  50.060  1.00  0.00    -0.248 OA
ATOM     34  N   UNL     1      38.539  69.835  48.506  1.00  0.00    -0.338 N 
ATOM     35  H   UNL     1      38.730  67.986  49.949  1.00  0.00    +0.172 HD
ATOM     36  H   UNL     1      38.481  68.923  48.079  1.00  0.00    +0.165 HD
BRANCH  34  37
ATOM     37  C   UNL     1      38.358  70.981  47.638  1.00  0.00    +0.114 C 
ATOM     38  C   UNL     1      39.016  70.778  46.285  1.00  0.00    +0.027 C 
ENDBRANCH  34  37
ENDBRANCH   8  31
TORSDOF 4
ENDMDL
MODEL 12
REMARK VINA RESULT:    -7.714      3.754      8.950
REMARK INTER + INTRA:         -10.718
REMARK INTER:                  -9.406
REMARK INTRA:                  -1.312
REMARK UNBOUND:                -1.200
REMARK SMILES CCNC(=O)Nc1sc2ccccc2c1C(=O)N1CCC(N2CCC[C@@]3(C2)CC(C)(C)OC3=O)CC1
REMARK SMILES IDX 14 1 13 2 12 3 11 4 10 5 9 6 8 7 7 8 15 9 16 10 18 11 17 12
REMARK SMILES IDX 19 13 36 14 20 15 35 16 21 17 22 18 23 19 27 20 24 21 26 22
REMARK SMILES IDX 25 23 33 24 28 25 34 26 32 27 29 28 30 29 31 30 6 31 4 32
REMARK SMILES IDX 5 33 3 34 2 37 1 38
REMARK H PARENT 6 35 3 36
REMARK INDEX MAP 1 1 2 2 3 3 4 4 5 5 6 6 7 7 8 8 13 9 14 10 15 11 16 12 17 13
REMARK INDEX MAP 19 14 18 15 20 16 21 17 22 18 23 19 26 20 24 21 27 22 25 23
REMARK INDEX MAP 28 24 31 25 29 26 30 27 32 28 33 29 34 30 9 31 10 32 11 33
REMARK INDEX MAP 12 34 41 35 42 36 35 37 36 38
ROOT
ATOM      1  C   UNL     1      36.613  63.989  53.523  1.00  0.00    +0.007 A 
ATOM      2  C   UNL     1      36.648  64.665  52.275  1.00  0.00    +0.010 A 
ATOM      3  C   UNL     1      35.656  64.450  51.313  1.00  0.00    +0.001 A 
ATOM      4  C   UNL     1      34.614  63.573  51.568  1.00  0.00    +0.002 A 
ATOM      5  C   UNL     1      34.536  62.906  52.793  1.00  0.00    +0.020 A 
ATOM      6  C   UNL     1      35.534  63.133  53.761  1.00  0.00    +0.037 A 
ATOM      7  S   UNL     1      35.614  62.451  55.333  1.00  0.00    -0.117 S 
ATOM      8  C   UNL     1      37.009  63.316  55.735  1.00  0.00    +0.110 A 
ATOM      9  C   UNL     1      37.516  64.022  54.657  1.00  0.00    +0.082 A 
ENDROOT
BRANCH   9  10
ATOM     10  C   UNL     1      38.783  64.749  54.748  1.00  0.00    +0.257 C 
ATOM     11  N   UNL     1      38.745  66.084  55.164  1.00  0.00    -0.338 N 
ATOM     12  O   UNL     1      39.832  64.208  54.403  1.00  0.00    -0.269 OA
ATOM     13  C   UNL     1      37.560  66.934  55.037  1.00  0.00    +0.121 C 
ATOM     14  C   UNL     1      39.997  66.791  55.354  1.00  0.00    +0.121 C 
ATOM     15  C   UNL     1      37.906  68.375  54.633  1.00  0.00    +0.041 C 
ATOM     16  C   UNL     1      40.296  67.700  54.166  1.00  0.00    +0.041 C 
ATOM     17  C   UNL     1      39.034  68.394  53.579  1.00  0.00    +0.060 C 
BRANCH  17  18
ATOM     18  N   UNL     1      39.382  69.750  53.071  1.00  0.00    -0.299 NA
ATOM     19  C   UNL     1      38.176  70.567  52.846  1.00  0.00    +0.085 C 
ATOM     20  C   UNL     1      40.299  70.486  53.974  1.00  0.00    +0.103 C 
ATOM     21  C   UNL     1      38.510  71.819  52.034  1.00  0.00    +0.017 C 
ATOM     22  C   UNL     1      40.504  71.982  53.626  1.00  0.00    +0.084 C 
ATOM     23  C   UNL     1      39.928  72.342  52.253  1.00  0.00    +0.021 C 
ATOM     24  C   UNL     1      39.910  72.842  54.725  1.00  0.00    +0.314 C 
ATOM     25  C   UNL     1      41.976  72.410  53.701  1.00  0.00    +0.068 C 
ATOM     26  O   UNL     1      38.722  73.065  54.897  1.00  0.00    -0.252 OA
ATOM     27  O   UNL     1      40.883  73.333  55.547  1.00  0.00    -0.459 OA
ATOM     28  C   UNL     1      42.177  72.877  55.135  1.00  0.00    +0.108 C 
ATOM     29  C   UNL     1      42.639  71.766  56.080  1.00  0.00    +0.056 C 
ATOM     30  C   UNL     1      43.149  74.054  55.210  1.00  0.00    +0.056 C 
ENDBRANCH  17  18
ENDBRANCH   9  10
BRANCH   8  31
ATOM     31  N   UNL     1      37.565  63.263  57.005  1.00  0.00    -0.299 N 
ATOM     32  C   UNL     1      38.448  62.326  57.498  1.00  0.00    +0.319 C 
ATOM     33  O   UNL     1      38.915  61.357  56.917  1.00  0.00    -0.248 OA
ATOM     34  N   UNL     1      38.770  62.615  58.815  1.00  0.00    -0.338 N 
ATOM     35  H   UNL     1      37.129  63.871  57.689  1.00  0.00    +0.172 HD
ATOM     36  H   UNL     1      38.646  63.569  59.118  1.00  0.00    +0.165 HD
BRANCH  34  37
ATOM     37  C   UNL     1      39.731  61.812  59.542  1.00  0.00    +0.114 C 
ATOM     38  C   UNL     1      40.424  62.606  60.635  1.00  0.00    +0.027 C 
ENDBRANCH  34  37
ENDBRANCH   8  31
TORSDOF 4
ENDMDL
MODEL 13
REMARK VINA RESULT:    -7.703      2.631      3.964
REMARK INTER + INTRA:         -10.703
REMARK INTER:                  -9.359
REMARK INTRA:                  -1.345
REMARK UNBOUND:                -1.200
REMARK SMILES CCNC(=O)Nc1sc2ccccc2c1C(=O)N1CCC(N2CCC[C@@]3(C2)CC(C)(C)OC3=O)CC1
REMARK SMILES IDX 14 1 13 2 12 3 11 4 10 5 9 6 8 7 7 8 15 9 16 10 18 11 17 12
REMARK SMILES IDX 19 13 36 14 20 15 35 16 21 17 22 18 23 19 27 20 24 21 26 22
REMARK SMILES IDX 25 23 33 24 28 25 34 26 32 27 29 28 30 29 31 30 6 31 4 32
REMARK SMILES IDX 5 33 3 34 2 37 1 38
REMARK H PARENT 6 35 3 36
REMARK INDEX MAP 1 1 2 2 3 3 4 4 5 5 6 6 7 7 8 8 13 9 14 10 15 11 16 12 17 13
REMARK INDEX MAP 19 14 18 15 20 16 21 17 22 18 23 19 26 20 24 21 27 22 25 23
REMARK INDEX MAP 28 24 31 25 29 26 30 27 32 28 33 29 34 30 9 31 10 32 11 33
REMARK INDEX MAP 12 34 41 35 42 36 35 37 36 38
ROOT
ATOM      1  C   UNL     1      40.741  70.216  54.032  1.00  0.00    +0.007 A 
ATOM      2  C   UNL     1      40.642  71.447  53.329  1.00  0.00    +0.010 A 
ATOM      3  C   UNL     1      41.139  72.631  53.881  1.00  0.00    +0.001 A 
ATOM      4  C   UNL     1      41.747  72.620  55.128  1.00  0.00    +0.002 A 
ATOM      5  C   UNL     1      41.880  71.425  55.838  1.00  0.00    +0.020 A 
ATOM      6  C   UNL     1      41.383  70.234  55.272  1.00  0.00    +0.037 A 
ATOM      7  S   UNL     1      41.472  68.660  55.950  1.00  0.00    -0.117 S 
ATOM      8  C   UNL     1      40.739  67.943  54.607  1.00  0.00    +0.110 A 
ATOM      9  C   UNL     1      40.292  68.880  53.691  1.00  0.00    +0.082 A 
ENDROOT
BRANCH   9  10
ATOM     10  C   UNL     1      39.526  68.487  52.508  1.00  0.00    +0.257 C 
ATOM     11  N   UNL     1      38.141  68.348  52.640  1.00  0.00    -0.338 N 
ATOM     12  O   UNL     1      40.106  68.225  51.455  1.00  0.00    -0.269 OA
ATOM     13  C   UNL     1      37.475  68.081  53.916  1.00  0.00    +0.121 C 
ATOM     14  C   UNL     1      37.354  68.055  51.457  1.00  0.00    +0.121 C 
ATOM     15  C   UNL     1      36.303  67.099  53.778  1.00  0.00    +0.041 C 
ATOM     16  C   UNL     1      36.985  66.575  51.401  1.00  0.00    +0.041 C 
ATOM     17  C   UNL     1      36.651  65.964  52.791  1.00  0.00    +0.060 C 
BRANCH  17  18
ATOM     18  N   UNL     1      35.597  64.919  52.654  1.00  0.00    -0.299 NA
ATOM     19  C   UNL     1      34.266  65.448  53.004  1.00  0.00    +0.085 C 
ATOM     20  C   UNL     1      35.539  64.336  51.293  1.00  0.00    +0.103 C 
ATOM     21  C   UNL     1      33.256  64.313  53.171  1.00  0.00    +0.017 C 
ATOM     22  C   UNL     1      34.315  63.426  51.019  1.00  0.00    +0.084 C 
ATOM     23  C   UNL     1      33.543  63.091  52.300  1.00  0.00    +0.021 C 
ATOM     24  C   UNL     1      33.421  64.080  49.982  1.00  0.00    +0.314 C 
ATOM     25  C   UNL     1      34.693  62.131  50.286  1.00  0.00    +0.068 C 
ATOM     26  O   UNL     1      32.660  65.013  50.180  1.00  0.00    -0.252 OA
ATOM     27  O   UNL     1      33.592  63.508  48.754  1.00  0.00    -0.459 OA
ATOM     28  C   UNL     1      34.575  62.469  48.808  1.00  0.00    +0.108 C 
ATOM     29  C   UNL     1      35.879  62.983  48.193  1.00  0.00    +0.056 C 
ATOM     30  C   UNL     1      34.061  61.277  48.001  1.00  0.00    +0.056 C 
ENDBRANCH  17  18
ENDBRANCH   9  10
BRANCH   8  31
ATOM     31  N   UNL     1      40.593  66.568  54.498  1.00  0.00    -0.299 N 
ATOM     32  C   UNL     1      39.788  65.744  55.257  1.00  0.00    +0.319 C 
ATOM     33  O   UNL     1      39.045  66.061  56.175  1.00  0.00    -0.248 OA
ATOM     34  N   UNL     1      39.921  64.428  54.845  1.00  0.00    -0.338 N 
ATOM     35  H   UNL     1      41.291  66.107  53.925  1.00  0.00    +0.172 HD
ATOM     36  H   UNL     1      40.255  64.274  53.905  1.00  0.00    +0.165 HD
BRANCH  34  37
ATOM     37  C   UNL     1      39.131  63.373  55.445  1.00  0.00    +0.114 C 
ATOM     38  C   UNL     1      39.968  62.474  56.336  1.00  0.00    +0.027 C 
ENDBRANCH  34  37
ENDBRANCH   8  31
TORSDOF 4
ENDMDL
MODEL 14
REMARK VINA RESULT:    -7.697      3.701      5.511
REMARK INTER + INTRA:         -10.696
REMARK INTER:                  -9.222
REMARK INTRA:                  -1.474
REMARK UNBOUND:                -1.200
REMARK SMILES CCNC(=O)Nc1sc2ccccc2c1C(=O)N1CCC(N2CCC[C@@]3(C2)CC(C)(C)OC3=O)CC1
REMARK SMILES IDX 14 1 13 2 12 3 11 4 10 5 9 6 8 7 7 8 15 9 16 10 18 11 17 12
REMARK SMILES IDX 19 13 36 14 20 15 35 16 21 17 22 18 23 19 27 20 24 21 26 22
REMARK SMILES IDX 25 23 33 24 28 25 34 26 32 27 29 28 30 29 31 30 6 31 4 32
REMARK SMILES IDX 5 33 3 34 2 37 1 38
REMARK H PARENT 6 35 3 36
REMARK INDEX MAP 1 1 2 2 3 3 4 4 5 5 6 6 7 7 8 8 13 9 14 10 15 11 16 12 17 13
REMARK INDEX MAP 19 14 18 15 20 16 21 17 22 18 23 19 26 20 24 21 27 22 25 23
REMARK INDEX MAP 28 24 31 25 29 26 30 27 32 28 33 29 34 30 9 31 10 32 11 33
REMARK INDEX MAP 12 34 41 35 42 36 35 37 36 38
ROOT
ATOM      1  C   UNL     1      39.089  71.550  53.890  1.00  0.00    +0.007 A 
ATOM      2  C   UNL     1      38.056  72.362  53.352  1.00  0.00    +0.010 A 
ATOM      3  C   UNL     1      37.742  73.598  53.924  1.00  0.00    +0.001 A 
ATOM      4  C   UNL     1      38.445  74.056  55.028  1.00  0.00    +0.002 A 
ATOM      5  C   UNL     1      39.480  73.293  55.571  1.00  0.00    +0.020 A 
ATOM      6  C   UNL     1      39.797  72.051  54.986  1.00  0.00    +0.037 A 
ATOM      7  S   UNL     1      41.046  70.977  55.466  1.00  0.00    -0.117 S 
ATOM      8  C   UNL     1      40.716  69.891  54.214  1.00  0.00    +0.110 A 
ATOM      9  C   UNL     1      39.583  70.243  53.500  1.00  0.00    +0.082 A 
ENDROOT
BRANCH   9  10
ATOM     10  C   UNL     1      39.048  69.383  52.445  1.00  0.00    +0.257 C 
ATOM     11  N   UNL     1      37.801  68.784  52.655  1.00  0.00    -0.338 N 
ATOM     12  O   UNL     1      39.717  69.150  51.438  1.00  0.00    -0.269 OA
ATOM     13  C   UNL     1      37.235  68.546  53.983  1.00  0.00    +0.121 C 
ATOM     14  C   UNL     1      37.211  68.007  51.581  1.00  0.00    +0.121 C 
ATOM     15  C   UNL     1      36.500  67.201  54.080  1.00  0.00    +0.041 C 
ATOM     16  C   UNL     1      37.400  66.513  51.822  1.00  0.00    +0.041 C 
ATOM     17  C   UNL     1      37.264  66.100  53.315  1.00  0.00    +0.060 C 
BRANCH  17  18
ATOM     18  N   UNL     1      36.661  64.742  53.420  1.00  0.00    -0.299 NA
ATOM     19  C   UNL     1      36.092  64.508  54.760  1.00  0.00    +0.085 C 
ATOM     20  C   UNL     1      35.611  64.498  52.403  1.00  0.00    +0.103 C 
ATOM     21  C   UNL     1      35.770  63.027  54.963  1.00  0.00    +0.017 C 
ATOM     22  C   UNL     1      34.783  63.205  52.610  1.00  0.00    +0.084 C 
ATOM     23  C   UNL     1      35.392  62.291  53.679  1.00  0.00    +0.021 C 
ATOM     24  C   UNL     1      33.348  63.572  52.941  1.00  0.00    +0.314 C 
ATOM     25  C   UNL     1      34.578  62.418  51.309  1.00  0.00    +0.068 C 
ATOM     26  O   UNL     1      32.943  63.981  54.017  1.00  0.00    -0.252 OA
ATOM     27  O   UNL     1      32.537  63.416  51.853  1.00  0.00    -0.459 OA
ATOM     28  C   UNL     1      33.286  62.965  50.719  1.00  0.00    +0.108 C 
ATOM     29  C   UNL     1      33.500  64.140  49.763  1.00  0.00    +0.056 C 
ATOM     30  C   UNL     1      32.484  61.869  50.017  1.00  0.00    +0.056 C 
ENDBRANCH  17  18
ENDBRANCH   9  10
BRANCH   8  31
ATOM     31  N   UNL     1      41.501  68.770  53.989  1.00  0.00    -0.299 N 
ATOM     32  C   UNL     1      42.769  68.724  53.451  1.00  0.00    +0.319 C 
ATOM     33  O   UNL     1      43.454  69.661  53.066  1.00  0.00    -0.248 OA
ATOM     34  N   UNL     1      43.217  67.415  53.384  1.00  0.00    -0.338 N 
ATOM     35  H   UNL     1      41.011  67.884  54.056  1.00  0.00    +0.172 HD
ATOM     36  H   UNL     1      42.785  66.750  54.008  1.00  0.00    +0.165 HD
BRANCH  34  37
ATOM     37  C   UNL     1      44.551  67.105  52.912  1.00  0.00    +0.114 C 
ATOM     38  C   UNL     1      45.508  66.824  54.057  1.00  0.00    +0.027 C 
ENDBRANCH  34  37
ENDBRANCH   8  31
TORSDOF 4
ENDMDL
MODEL 15
REMARK VINA RESULT:    -7.659      4.089      6.915
REMARK INTER + INTRA:         -10.649
REMARK INTER:                  -9.175
REMARK INTRA:                  -1.475
REMARK UNBOUND:                -1.200
REMARK SMILES CCNC(=O)Nc1sc2ccccc2c1C(=O)N1CCC(N2CCC[C@@]3(C2)CC(C)(C)OC3=O)CC1
REMARK SMILES IDX 14 1 13 2 12 3 11 4 10 5 9 6 8 7 7 8 15 9 16 10 18 11 17 12
REMARK SMILES IDX 19 13 36 14 20 15 35 16 21 17 22 18 23 19 27 20 24 21 26 22
REMARK SMILES IDX 25 23 33 24 28 25 34 26 32 27 29 28 30 29 31 30 6 31 4 32
REMARK SMILES IDX 5 33 3 34 2 37 1 38
REMARK H PARENT 6 35 3 36
REMARK INDEX MAP 1 1 2 2 3 3 4 4 5 5 6 6 7 7 8 8 13 9 14 10 15 11 16 12 17 13
REMARK INDEX MAP 19 14 18 15 20 16 21 17 22 18 23 19 26 20 24 21 27 22 25 23
REMARK INDEX MAP 28 24 31 25 29 26 30 27 32 28 33 29 34 30 9 31 10 32 11 33
REMARK INDEX MAP 12 34 41 35 42 36 35 37 36 38
ROOT
ATOM      1  C   UNL     1      42.067  70.515  53.708  1.00  0.00    +0.007 A 
ATOM      2  C   UNL     1      41.641  71.495  54.643  1.00  0.00    +0.010 A 
ATOM      3  C   UNL     1      42.568  72.232  55.385  1.00  0.00    +0.001 A 
ATOM      4  C   UNL     1      43.927  72.021  55.212  1.00  0.00    +0.002 A 
ATOM      5  C   UNL     1      44.384  71.080  54.287  1.00  0.00    +0.020 A 
ATOM      6  C   UNL     1      43.444  70.345  53.537  1.00  0.00    +0.037 A 
ATOM      7  S   UNL     1      43.783  69.174  52.330  1.00  0.00    -0.117 S 
ATOM      8  C   UNL     1      42.147  68.933  51.978  1.00  0.00    +0.110 A 
ATOM      9  C   UNL     1      41.317  69.620  52.848  1.00  0.00    +0.082 A 
ENDROOT
BRANCH   9  10
ATOM     10  C   UNL     1      39.863  69.464  52.799  1.00  0.00    +0.257 C 
ATOM     11  N   UNL     1      39.229  68.874  53.896  1.00  0.00    -0.338 N 
ATOM     12  O   UNL     1      39.241  69.787  51.787  1.00  0.00    -0.269 OA
ATOM     13  C   UNL     1      39.908  67.978  54.833  1.00  0.00    +0.121 C 
ATOM     14  C   UNL     1      37.780  68.800  53.908  1.00  0.00    +0.121 C 
ATOM     15  C   UNL     1      39.023  66.805  55.278  1.00  0.00    +0.041 C 
ATOM     16  C   UNL     1      37.303  67.402  53.526  1.00  0.00    +0.041 C 
ATOM     17  C   UNL     1      38.195  66.262  54.093  1.00  0.00    +0.060 C 
BRANCH  17  18
ATOM     18  N   UNL     1      37.362  65.070  54.415  1.00  0.00    -0.299 NA
ATOM     19  C   UNL     1      36.881  65.109  55.809  1.00  0.00    +0.085 C 
ATOM     20  C   UNL     1      36.198  64.919  53.510  1.00  0.00    +0.103 C 
ATOM     21  C   UNL     1      36.309  63.754  56.225  1.00  0.00    +0.017 C 
ATOM     22  C   UNL     1      35.166  63.846  53.940  1.00  0.00    +0.084 C 
ATOM     23  C   UNL     1      35.688  62.961  55.077  1.00  0.00    +0.021 C 
ATOM     24  C   UNL     1      33.860  64.522  54.312  1.00  0.00    +0.314 C 
ATOM     25  C   UNL     1      34.702  62.969  52.769  1.00  0.00    +0.068 C 
ATOM     26  O   UNL     1      33.636  65.126  55.349  1.00  0.00    -0.252 OA
ATOM     27  O   UNL     1      32.940  64.402  53.310  1.00  0.00    -0.459 OA
ATOM     28  C   UNL     1      33.487  63.684  52.199  1.00  0.00    +0.108 C 
ATOM     29  C   UNL     1      33.830  64.676  51.085  1.00  0.00    +0.056 C 
ATOM     30  C   UNL     1      32.436  62.693  51.701  1.00  0.00    +0.056 C 
ENDBRANCH  17  18
ENDBRANCH   9  10
BRANCH   8  31
ATOM     31  N   UNL     1      41.733  68.103  50.946  1.00  0.00    -0.299 N 
ATOM     32  C   UNL     1      41.616  68.417  49.609  1.00  0.00    +0.319 C 
ATOM     33  O   UNL     1      41.854  69.487  49.067  1.00  0.00    -0.248 OA
ATOM     34  N   UNL     1      41.166  67.319  48.894  1.00  0.00    -0.338 N 
ATOM     35  H   UNL     1      41.295  67.238  51.243  1.00  0.00    +0.172 HD
ATOM     36  H   UNL     1      41.317  66.411  49.306  1.00  0.00    +0.165 HD
BRANCH  34  37
ATOM     37  C   UNL     1      41.020  67.374  47.454  1.00  0.00    +0.114 C 
ATOM     38  C   UNL     1      41.078  65.994  46.824  1.00  0.00    +0.027 C 
ENDBRANCH  34  37
ENDBRANCH   8  31
TORSDOF 4
ENDMDL
MODEL 16
REMARK VINA RESULT:    -7.555      2.946      5.659
REMARK INTER + INTRA:         -10.522
REMARK INTER:                  -9.043
REMARK INTRA:                  -1.478
REMARK UNBOUND:                -1.200
REMARK SMILES CCNC(=O)Nc1sc2ccccc2c1C(=O)N1CCC(N2CCC[C@@]3(C2)CC(C)(C)OC3=O)CC1
REMARK SMILES IDX 14 1 13 2 12 3 11 4 10 5 9 6 8 7 7 8 15 9 16 10 18 11 17 12
REMARK SMILES IDX 19 13 36 14 20 15 35 16 21 17 22 18 23 19 27 20 24 21 26 22
REMARK SMILES IDX 25 23 33 24 28 25 34 26 32 27 29 28 30 29 31 30 6 31 4 32
REMARK SMILES IDX 5 33 3 34 2 37 1 38
REMARK H PARENT 6 35 3 36
REMARK INDEX MAP 1 1 2 2 3 3 4 4 5 5 6 6 7 7 8 8 13 9 14 10 15 11 16 12 17 13
REMARK INDEX MAP 19 14 18 15 20 16 21 17 22 18 23 19 26 20 24 21 27 22 25 23
REMARK INDEX MAP 28 24 31 25 29 26 30 27 32 28 33 29 34 30 9 31 10 32 11 33
REMARK INDEX MAP 12 34 41 35 42 36 35 37 36 38
ROOT
ATOM      1  C   UNL     1      42.660  66.083  57.924  1.00  0.00    +0.007 A 
ATOM      2  C   UNL     1      43.075  65.305  59.038  1.00  0.00    +0.010 A 
ATOM      3  C   UNL     1      44.428  65.037  59.264  1.00  0.00    +0.001 A 
ATOM      4  C   UNL     1      45.392  65.537  58.402  1.00  0.00    +0.002 A 
ATOM      5  C   UNL     1      45.023  66.322  57.308  1.00  0.00    +0.020 A 
ATOM      6  C   UNL     1      43.658  66.594  57.090  1.00  0.00    +0.037 A 
ATOM      7  S   UNL     1      42.990  67.559  55.838  1.00  0.00    -0.117 S 
ATOM      8  C   UNL     1      41.412  67.371  56.413  1.00  0.00    +0.110 A 
ATOM      9  C   UNL     1      41.341  66.476  57.467  1.00  0.00    +0.082 A 
ENDROOT
BRANCH   9  10
ATOM     10  C   UNL     1      40.058  66.076  58.044  1.00  0.00    +0.257 C 
ATOM     11  N   UNL     1      39.396  64.982  57.478  1.00  0.00    -0.338 N 
ATOM     12  O   UNL     1      39.558  66.733  58.957  1.00  0.00    -0.269 OA
ATOM     13  C   UNL     1      39.614  64.532  56.103  1.00  0.00    +0.121 C 
ATOM     14  C   UNL     1      38.172  64.510  58.097  1.00  0.00    +0.121 C 
ATOM     15  C   UNL     1      38.317  64.080  55.415  1.00  0.00    +0.041 C 
ATOM     16  C   UNL     1      36.948  65.001  57.329  1.00  0.00    +0.041 C 
ATOM     17  C   UNL     1      37.145  65.013  55.786  1.00  0.00    +0.060 C 
BRANCH  17  18
ATOM     18  N   UNL     1      35.861  64.695  55.102  1.00  0.00    -0.299 NA
ATOM     19  C   UNL     1      35.050  65.908  54.886  1.00  0.00    +0.085 C 
ATOM     20  C   UNL     1      36.055  64.011  53.802  1.00  0.00    +0.103 C 
ATOM     21  C   UNL     1      33.621  65.543  54.484  1.00  0.00    +0.017 C 
ATOM     22  C   UNL     1      34.779  63.871  52.934  1.00  0.00    +0.084 C 
ATOM     23  C   UNL     1      33.508  64.231  53.710  1.00  0.00    +0.021 C 
ATOM     24  C   UNL     1      34.926  64.714  51.681  1.00  0.00    +0.314 C 
ATOM     25  C   UNL     1      34.634  62.474  52.316  1.00  0.00    +0.068 C 
ATOM     26  O   UNL     1      34.814  65.928  51.617  1.00  0.00    -0.252 OA
ATOM     27  O   UNL     1      35.237  63.939  50.600  1.00  0.00    -0.459 OA
ATOM     28  C   UNL     1      35.347  62.561  50.975  1.00  0.00    +0.108 C 
ATOM     29  C   UNL     1      36.826  62.179  51.044  1.00  0.00    +0.056 C 
ATOM     30  C   UNL     1      34.645  61.716  49.912  1.00  0.00    +0.056 C 
ENDBRANCH  17  18
ENDBRANCH   9  10
BRANCH   8  31
ATOM     31  N   UNL     1      40.337  68.034  55.838  1.00  0.00    -0.299 N 
ATOM     32  C   UNL     1      39.795  67.830  54.587  1.00  0.00    +0.319 C 
ATOM     33  O   UNL     1      40.152  67.026  53.737  1.00  0.00    -0.248 OA
ATOM     34  N   UNL     1      38.731  68.693  54.377  1.00  0.00    -0.338 N 
ATOM     35  H   UNL     1      40.047  68.878  56.320  1.00  0.00    +0.172 HD
ATOM     36  H   UNL     1      38.276  69.067  55.196  1.00  0.00    +0.165 HD
BRANCH  34  37
ATOM     37  C   UNL     1      37.951  68.634  53.158  1.00  0.00    +0.114 C 
ATOM     38  C   UNL     1      38.393  69.678  52.149  1.00  0.00    +0.027 C 
ENDBRANCH  34  37
ENDBRANCH   8  31
TORSDOF 4
ENDMDL
MODEL 17
REMARK VINA RESULT:    -7.552      5.138      9.374
REMARK INTER + INTRA:         -10.518
REMARK INTER:                  -9.514
REMARK INTRA:                  -1.003
REMARK UNBOUND:                -1.200
REMARK SMILES CCNC(=O)Nc1sc2ccccc2c1C(=O)N1CCC(N2CCC[C@@]3(C2)CC(C)(C)OC3=O)CC1
REMARK SMILES IDX 14 1 13 2 12 3 11 4 10 5 9 6 8 7 7 8 15 9 16 10 18 11 17 12
REMARK SMILES IDX 19 13 36 14 20 15 35 16 21 17 22 18 23 19 27 20 24 21 26 22
REMARK SMILES IDX 25 23 33 24 28 25 34 26 32 27 29 28 30 29 31 30 6 31 4 32
REMARK SMILES IDX 5 33 3 34 2 37 1 38
REMARK H PARENT 6 35 3 36
REMARK INDEX MAP 1 1 2 2 3 3 4 4 5 5 6 6 7 7 8 8 13 9 14 10 15 11 16 12 17 13
REMARK INDEX MAP 19 14 18 15 20 16 21 17 22 18 23 19 26 20 24 21 27 22 25 23
REMARK INDEX MAP 28 24 31 25 29 26 30 27 32 28 33 29 34 30 9 31 10 32 11 33
REMARK INDEX MAP 12 34 41 35 42 36 35 37 36 38
ROOT
ATOM      1  C   UNL     1      40.593  67.637  45.171  1.00  0.00    +0.007 A 
ATOM      2  C   UNL     1      41.199  68.877  44.833  1.00  0.00    +0.010 A 
ATOM      3  C   UNL     1      42.320  68.926  43.999  1.00  0.00    +0.001 A 
ATOM      4  C   UNL     1      42.856  67.757  43.481  1.00  0.00    +0.002 A 
ATOM      5  C   UNL     1      42.275  66.522  43.775  1.00  0.00    +0.020 A 
ATOM      6  C   UNL     1      41.140  66.481  44.610  1.00  0.00    +0.037 A 
ATOM      7  S   UNL     1      40.252  65.086  45.068  1.00  0.00    -0.117 S 
ATOM      8  C   UNL     1      39.117  65.985  45.939  1.00  0.00    +0.110 A 
ATOM      9  C   UNL     1      39.458  67.325  46.017  1.00  0.00    +0.082 A 
ENDROOT
BRANCH   9  10
ATOM     10  C   UNL     1      38.676  68.266  46.820  1.00  0.00    +0.257 C 
ATOM     11  N   UNL     1      39.269  68.796  47.971  1.00  0.00    -0.338 N 
ATOM     12  O   UNL     1      37.512  68.521  46.514  1.00  0.00    -0.269 OA
ATOM     13  C   UNL     1      40.362  68.140  48.689  1.00  0.00    +0.121 C 
ATOM     14  C   UNL     1      38.547  69.803  48.725  1.00  0.00    +0.121 C 
ATOM     15  C   UNL     1      40.228  68.266  50.214  1.00  0.00    +0.041 C 
ATOM     16  C   UNL     1      37.891  69.193  49.959  1.00  0.00    +0.041 C 
ATOM     17  C   UNL     1      38.756  68.102  50.651  1.00  0.00    +0.060 C 
BRANCH  17  18
ATOM     18  N   UNL     1      38.542  68.133  52.125  1.00  0.00    -0.299 NA
ATOM     19  C   UNL     1      37.538  69.146  52.502  1.00  0.00    +0.085 C 
ATOM     20  C   UNL     1      38.129  66.820  52.675  1.00  0.00    +0.103 C 
ATOM     21  C   UNL     1      37.557  69.395  54.010  1.00  0.00    +0.017 C 
ATOM     22  C   UNL     1      37.658  66.844  54.151  1.00  0.00    +0.084 C 
ATOM     23  C   UNL     1      37.968  68.179  54.837  1.00  0.00    +0.021 C 
ATOM     24  C   UNL     1      36.179  66.513  54.215  1.00  0.00    +0.314 C 
ATOM     25  C   UNL     1      38.240  65.688  54.976  1.00  0.00    +0.068 C 
ATOM     26  O   UNL     1      35.263  67.268  53.931  1.00  0.00    -0.252 OA
ATOM     27  O   UNL     1      35.981  65.221  54.612  1.00  0.00    -0.459 OA
ATOM     28  C   UNL     1      37.230  64.559  54.836  1.00  0.00    +0.108 C 
ATOM     29  C   UNL     1      37.518  63.625  53.658  1.00  0.00    +0.056 C 
ATOM     30  C   UNL     1      37.119  63.744  56.124  1.00  0.00    +0.056 C 
ENDBRANCH  17  18
ENDBRANCH   9  10
BRANCH   8  31
ATOM     31  N   UNL     1      38.004  65.395  46.522  1.00  0.00    -0.299 N 
ATOM     32  C   UNL     1      37.377  64.227  46.145  1.00  0.00    +0.319 C 
ATOM     33  O   UNL     1      37.675  63.479  45.224  1.00  0.00    -0.248 OA
ATOM     34  N   UNL     1      36.296  63.973  46.973  1.00  0.00    -0.338 N 
ATOM     35  H   UNL     1      37.497  65.987  47.171  1.00  0.00    +0.172 HD
ATOM     36  H   UNL     1      36.305  64.404  47.885  1.00  0.00    +0.165 HD
BRANCH  34  37
ATOM     37  C   UNL     1      35.506  62.767  46.823  1.00  0.00    +0.114 C 
ATOM     38  C   UNL     1      34.056  62.986  47.213  1.00  0.00    +0.027 C 
ENDBRANCH  34  37
ENDBRANCH   8  31
TORSDOF 4
ENDMDL
MODEL 18
REMARK VINA RESULT:    -7.410      5.515      8.599
REMARK INTER + INTRA:         -10.342
REMARK INTER:                  -8.783
REMARK INTRA:                  -1.559
REMARK UNBOUND:                -1.200
REMARK SMILES CCNC(=O)Nc1sc2ccccc2c1C(=O)N1CCC(N2CCC[C@@]3(C2)CC(C)(C)OC3=O)CC1
REMARK SMILES IDX 14 1 13 2 12 3 11 4 10 5 9 6 8 7 7 8 15 9 16 10 18 11 17 12
REMARK SMILES IDX 19 13 36 14 20 15 35 16 21 17 22 18 23 19 27 20 24 21 26 22
REMARK SMILES IDX 25 23 33 24 28 25 34 26 32 27 29 28 30 29 31 30 6 31 4 32
REMARK SMILES IDX 5 33 3 34 2 37 1 38
REMARK H PARENT 6 35 3 36
REMARK INDEX MAP 1 1 2 2 3 3 4 4 5 5 6 6 7 7 8 8 13 9 14 10 15 11 16 12 17 13
REMARK INDEX MAP 19 14 18 15 20 16 21 17 22 18 23 19 26 20 24 21 27 22 25 23
REMARK INDEX MAP 28 24 31 25 29 26 30 27 32 28 33 29 34 30 9 31 10 32 11 33
REMARK INDEX MAP 12 34 41 35 42 36 35 37 36 38
ROOT
ATOM      1  C   UNL     1      39.073  72.626  52.072  1.00  0.00    +0.007 A 
ATOM      2  C   UNL     1      38.918  72.397  50.678  1.00  0.00    +0.010 A 
ATOM      3  C   UNL     1      38.381  73.383  49.844  1.00  0.00    +0.001 A 
ATOM      4  C   UNL     1      37.998  74.608  50.368  1.00  0.00    +0.002 A 
ATOM      5  C   UNL     1      38.155  74.875  51.729  1.00  0.00    +0.020 A 
ATOM      6  C   UNL     1      38.703  73.880  52.563  1.00  0.00    +0.037 A 
ATOM      7  S   UNL     1      39.015  74.008  54.245  1.00  0.00    -0.117 S 
ATOM      8  C   UNL     1      39.693  72.462  54.328  1.00  0.00    +0.110 A 
ATOM      9  C   UNL     1      39.574  71.773  53.132  1.00  0.00    +0.082 A 
ENDROOT
BRANCH   9  10
ATOM     10  C   UNL     1      39.990  70.375  53.011  1.00  0.00    +0.257 C 
ATOM     11  N   UNL     1      38.994  69.393  52.993  1.00  0.00    -0.338 N 
ATOM     12  O   UNL     1      41.186  70.086  52.996  1.00  0.00    -0.269 OA
ATOM     13  C   UNL     1      37.661  69.587  53.564  1.00  0.00    +0.121 C 
ATOM     14  C   UNL     1      39.381  68.012  52.776  1.00  0.00    +0.121 C 
ATOM     15  C   UNL     1      37.134  68.333  54.277  1.00  0.00    +0.041 C 
ATOM     16  C   UNL     1      39.405  67.240  54.091  1.00  0.00    +0.041 C 
ATOM     17  C   UNL     1      38.262  67.637  55.068  1.00  0.00    +0.060 C 
BRANCH  17  18
ATOM     18  N   UNL     1      37.824  66.451  55.856  1.00  0.00    -0.299 NA
ATOM     19  C   UNL     1      37.268  65.400  54.983  1.00  0.00    +0.085 C 
ATOM     20  C   UNL     1      38.915  65.867  56.673  1.00  0.00    +0.103 C 
ATOM     21  C   UNL     1      36.536  64.340  55.806  1.00  0.00    +0.017 C 
ATOM     22  C   UNL     1      38.590  64.498  57.322  1.00  0.00    +0.084 C 
ATOM     23  C   UNL     1      37.104  64.142  57.211  1.00  0.00    +0.021 C 
ATOM     24  C   UNL     1      39.470  63.426  56.706  1.00  0.00    +0.314 C 
ATOM     25  C   UNL     1      39.036  64.418  58.788  1.00  0.00    +0.068 C 
ATOM     26  O   UNL     1      39.318  62.920  55.606  1.00  0.00    -0.252 OA
ATOM     27  O   UNL     1      40.504  63.101  57.537  1.00  0.00    -0.459 OA
ATOM     28  C   UNL     1      40.458  63.880  58.737  1.00  0.00    +0.108 C 
ATOM     29  C   UNL     1      41.523  64.976  58.662  1.00  0.00    +0.056 C 
ATOM     30  C   UNL     1      40.750  62.958  59.921  1.00  0.00    +0.056 C 
ENDBRANCH  17  18
ENDBRANCH   9  10
BRANCH   8  31
ATOM     31  N   UNL     1      40.262  71.970  55.494  1.00  0.00    -0.299 N 
ATOM     32  C   UNL     1      41.589  72.009  55.864  1.00  0.00    +0.319 C 
ATOM     33  O   UNL     1      42.528  72.484  55.240  1.00  0.00    -0.248 OA
ATOM     34  N   UNL     1      41.762  71.410  57.101  1.00  0.00    -0.338 N 
ATOM     35  H   UNL     1      39.664  71.357  56.036  1.00  0.00    +0.172 HD
ATOM     36  H   UNL     1      40.953  71.357  57.701  1.00  0.00    +0.165 HD
BRANCH  34  37
ATOM     37  C   UNL     1      43.061  71.378  57.741  1.00  0.00    +0.114 C 
ATOM     38  C   UNL     1      43.099  70.399  58.901  1.00  0.00    +0.027 C 
ENDBRANCH  34  37
ENDBRANCH   8  31
TORSDOF 4
ENDMDL
MODEL 19
REMARK VINA RESULT:    -7.377      3.398      6.645
REMARK INTER + INTRA:         -10.302
REMARK INTER:                  -8.592
REMARK INTRA:                  -1.709
REMARK UNBOUND:                -1.200
REMARK SMILES CCNC(=O)Nc1sc2ccccc2c1C(=O)N1CCC(N2CCC[C@@]3(C2)CC(C)(C)OC3=O)CC1
REMARK SMILES IDX 14 1 13 2 12 3 11 4 10 5 9 6 8 7 7 8 15 9 16 10 18 11 17 12
REMARK SMILES IDX 19 13 36 14 20 15 35 16 21 17 22 18 23 19 27 20 24 21 26 22
REMARK SMILES IDX 25 23 33 24 28 25 34 26 32 27 29 28 30 29 31 30 6 31 4 32
REMARK SMILES IDX 5 33 3 34 2 37 1 38
REMARK H PARENT 6 35 3 36
REMARK INDEX MAP 1 1 2 2 3 3 4 4 5 5 6 6 7 7 8 8 13 9 14 10 15 11 16 12 17 13
REMARK INDEX MAP 19 14 18 15 20 16 21 17 22 18 23 19 26 20 24 21 27 22 25 23
REMARK INDEX MAP 28 24 31 25 29 26 30 27 32 28 33 29 34 30 9 31 10 32 11 33
REMARK INDEX MAP 12 34 41 35 42 36 35 37 36 38
ROOT
ATOM      1  C   UNL     1      42.501  65.259  59.333  1.00  0.00    +0.007 A 
ATOM      2  C   UNL     1      42.181  64.296  60.327  1.00  0.00    +0.010 A 
ATOM      3  C   UNL     1      43.173  63.486  60.888  1.00  0.00    +0.001 A 
ATOM      4  C   UNL     1      44.493  63.617  60.485  1.00  0.00    +0.002 A 
ATOM      5  C   UNL     1      44.847  64.568  59.525  1.00  0.00    +0.020 A 
ATOM      6  C   UNL     1      43.844  65.386  58.969  1.00  0.00    +0.037 A 
ATOM      7  S   UNL     1      44.061  66.633  57.811  1.00  0.00    -0.117 S 
ATOM      8  C   UNL     1      42.425  67.057  57.829  1.00  0.00    +0.110 A 
ATOM      9  C   UNL     1      41.667  66.187  58.595  1.00  0.00    +0.082 A 
ENDROOT
BRANCH   9  10
ATOM     10  C   UNL     1      40.209  66.298  58.658  1.00  0.00    +0.257 C 
ATOM     11  N   UNL     1      39.452  65.499  57.796  1.00  0.00    -0.338 N 
ATOM     12  O   UNL     1      39.684  67.123  59.406  1.00  0.00    -0.269 OA
ATOM     13  C   UNL     1      39.969  64.954  56.540  1.00  0.00    +0.121 C 
ATOM     14  C   UNL     1      38.006  65.523  57.912  1.00  0.00    +0.121 C 
ATOM     15  C   UNL     1      38.929  64.978  55.411  1.00  0.00    +0.041 C 
ATOM     16  C   UNL     1      37.387  66.396  56.825  1.00  0.00    +0.041 C 
ATOM     17  C   UNL     1      38.106  66.284  55.450  1.00  0.00    +0.060 C 
BRANCH  17  18
ATOM     18  N   UNL     1      37.122  66.428  54.342  1.00  0.00    -0.299 NA
ATOM     19  C   UNL     1      37.795  66.654  53.050  1.00  0.00    +0.085 C 
ATOM     20  C   UNL     1      36.221  65.258  54.215  1.00  0.00    +0.103 C 
ATOM     21  C   UNL     1      36.796  67.116  51.988  1.00  0.00    +0.017 C 
ATOM     22  C   UNL     1      35.342  65.239  52.939  1.00  0.00    +0.084 C 
ATOM     23  C   UNL     1      35.382  66.574  52.188  1.00  0.00    +0.021 C 
ATOM     24  C   UNL     1      35.767  64.085  52.051  1.00  0.00    +0.314 C 
ATOM     25  C   UNL     1      33.887  64.849  53.229  1.00  0.00    +0.068 C 
ATOM     26  O   UNL     1      36.761  64.054  51.343  1.00  0.00    -0.252 OA
ATOM     27  O   UNL     1      34.897  63.037  52.157  1.00  0.00    -0.459 OA
ATOM     28  C   UNL     1      33.851  63.335  53.087  1.00  0.00    +0.108 C 
ATOM     29  C   UNL     1      34.121  62.592  54.397  1.00  0.00    +0.056 C 
ATOM     30  C   UNL     1      32.526  62.860  52.490  1.00  0.00    +0.056 C 
ENDBRANCH  17  18
ENDBRANCH   9  10
BRANCH   8  31
ATOM     31  N   UNL     1      41.939  68.141  57.112  1.00  0.00    -0.299 N 
ATOM     32  C   UNL     1      41.684  68.208  55.758  1.00  0.00    +0.319 C 
ATOM     33  O   UNL     1      41.834  67.328  54.923  1.00  0.00    -0.248 OA
ATOM     34  N   UNL     1      41.210  69.465  55.420  1.00  0.00    -0.338 N 
ATOM     35  H   UNL     1      41.954  69.024  57.609  1.00  0.00    +0.172 HD
ATOM     36  H   UNL     1      40.790  70.010  56.158  1.00  0.00    +0.165 HD
BRANCH  34  37
ATOM     37  C   UNL     1      40.808  69.772  54.063  1.00  0.00    +0.114 C 
ATOM     38  C   UNL     1      39.298  69.848  53.922  1.00  0.00    +0.027 C 
ENDBRANCH  34  37
ENDBRANCH   8  31
TORSDOF 4
ENDMDL
MODEL 20
REMARK VINA RESULT:    -7.338      5.087      9.085
REMARK INTER + INTRA:         -10.253
REMARK INTER:                  -8.807
REMARK INTRA:                  -1.447
REMARK UNBOUND:                -1.200
REMARK SMILES CCNC(=O)Nc1sc2ccccc2c1C(=O)N1CCC(N2CCC[C@@]3(C2)CC(C)(C)OC3=O)CC1
REMARK SMILES IDX 14 1 13 2 12 3 11 4 10 5 9 6 8 7 7 8 15 9 16 10 18 11 17 12
REMARK SMILES IDX 19 13 36 14 20 15 35 16 21 17 22 18 23 19 27 20 24 21 26 22
REMARK SMILES IDX 25 23 33 24 28 25 34 26 32 27 29 28 30 29 31 30 6 31 4 32
REMARK SMILES IDX 5 33 3 34 2 37 1 38
REMARK H PARENT 6 35 3 36
REMARK INDEX MAP 1 1 2 2 3 3 4 4 5 5 6 6 7 7 8 8 13 9 14 10 15 11 16 12 17 13
REMARK INDEX MAP 19 14 18 15 20 16 21 17 22 18 23 19 26 20 24 21 27 22 25 23
REMARK INDEX MAP 28 24 31 25 29 26 30 27 32 28 33 29 34 30 9 31 10 32 11 33
REMARK INDEX MAP 12 34 41 35 42 36 35 37 36 38
ROOT
ATOM      1  C   UNL     1      38.816  72.409  53.021  1.00  0.00    +0.007 A 
ATOM      2  C   UNL     1      38.561  72.415  54.418  1.00  0.00    +0.010 A 
ATOM      3  C   UNL     1      37.931  73.504  55.029  1.00  0.00    +0.001 A 
ATOM      4  C   UNL     1      37.537  74.597  54.273  1.00  0.00    +0.002 A 
ATOM      5  C   UNL     1      37.754  74.617  52.893  1.00  0.00    +0.020 A 
ATOM      6  C   UNL     1      38.382  73.513  52.283  1.00  0.00    +0.037 A 
ATOM      7  S   UNL     1      38.711  73.314  50.611  1.00  0.00    -0.117 S 
ATOM      8  C   UNL     1      39.355  71.767  50.831  1.00  0.00    +0.110 A 
ATOM      9  C   UNL     1      39.462  71.429  52.170  1.00  0.00    +0.082 A 
ENDROOT
BRANCH   9  10
ATOM     10  C   UNL     1      40.099  70.182  52.594  1.00  0.00    +0.257 C 
ATOM     11  N   UNL     1      39.323  69.018  52.603  1.00  0.00    -0.338 N 
ATOM     12  O   UNL     1      41.264  70.187  52.990  1.00  0.00    -0.269 OA
ATOM     13  C   UNL     1      37.863  69.024  52.707  1.00  0.00    +0.121 C 
ATOM     14  C   UNL     1      39.962  67.757  52.927  1.00  0.00    +0.121 C 
ATOM     15  C   UNL     1      37.328  67.892  53.594  1.00  0.00    +0.041 C 
ATOM     16  C   UNL     1      39.672  67.353  54.369  1.00  0.00    +0.041 C 
ATOM     17  C   UNL     1      38.227  67.693  54.833  1.00  0.00    +0.060 C 
BRANCH  17  18
ATOM     18  N   UNL     1      37.740  66.663  55.793  1.00  0.00    -0.299 NA
ATOM     19  C   UNL     1      36.981  65.602  55.104  1.00  0.00    +0.085 C 
ATOM     20  C   UNL     1      38.834  66.040  56.574  1.00  0.00    +0.103 C 
ATOM     21  C   UNL     1      36.221  64.737  56.110  1.00  0.00    +0.017 C 
ATOM     22  C   UNL     1      38.424  64.800  57.408  1.00  0.00    +0.084 C 
ATOM     23  C   UNL     1      36.903  64.622  57.472  1.00  0.00    +0.021 C 
ATOM     24  C   UNL     1      39.108  63.566  56.849  1.00  0.00    +0.314 C 
ATOM     25  C   UNL     1      39.005  64.823  58.828  1.00  0.00    +0.068 C 
ATOM     26  O   UNL     1      38.787  62.967  55.835  1.00  0.00    -0.252 OA
ATOM     27  O   UNL     1      40.178  63.206  57.618  1.00  0.00    -0.459 OA
ATOM     28  C   UNL     1      40.344  64.110  58.716  1.00  0.00    +0.108 C 
ATOM     29  C   UNL     1      41.513  65.050  58.416  1.00  0.00    +0.056 C 
ATOM     30  C   UNL     1      40.649  63.292  59.971  1.00  0.00    +0.056 C 
ENDBRANCH  17  18
ENDBRANCH   9  10
BRANCH   8  31
ATOM     31  N   UNL     1      39.751  70.978  49.761  1.00  0.00    -0.299 N 
ATOM     32  C   UNL     1      38.957  70.181  48.963  1.00  0.00    +0.319 C 
ATOM     33  O   UNL     1      37.748  70.013  49.040  1.00  0.00    -0.248 OA
ATOM     34  N   UNL     1      39.725  69.545  48.001  1.00  0.00    -0.338 N 
ATOM     35  H   UNL     1      40.752  70.832  49.683  1.00  0.00    +0.172 HD
ATOM     36  H   UNL     1      40.610  69.969  47.767  1.00  0.00    +0.165 HD
BRANCH  34  37
ATOM     37  C   UNL     1      39.114  68.698  46.998  1.00  0.00    +0.114 C 
ATOM     38  C   UNL     1      39.178  67.230  47.378  1.00  0.00    +0.027 C 
ENDBRANCH  34  37
ENDBRANCH   8  31
TORSDOF 4
ENDMDL
