REMARK SMILES COC(=O)c1cccc(CCN(C)Cc2ccccc2)c1
REMARK SMILES IDX 10 1 11 2 12 3 13 4 14 5 15 6 16 7 20 8 17 9 19 10 18 11
REMARK SMILES IDX 9 12 8 13 21 14 7 15 5 16 6 17 3 18 4 19 2 20 1 21
REMARK H PARENT
REMARK INDEX MAP 4 1 3 2 2 3 1 4 15 5 16 6 17 7 21 8 18 9 20 10 19 11 5 12
REMARK INDEX MAP 6 13 10 14 7 15 9 16 8 17 11 18 12 19 13 20 14 21
ROOT
ATOM      1  C   UNL     1       0.457   0.273  -2.160  1.00  0.00    +0.051 C 
ENDROOT
BRANCH   1   2
ATOM      2  C   UNL     1       0.009  -1.199  -2.212  1.00  0.00    +0.089 C 
BRANCH   2   3
ATOM      3  N   UNL     1       1.071  -2.223  -2.207  1.00  0.00    -0.302 NA
ATOM      4  C   UNL     1       1.909  -2.150  -3.402  1.00  0.00    +0.105 C 
BRANCH   3   5
ATOM      5  C   UNL     1       1.903  -2.220  -0.992  1.00  0.00    +0.119 C 
BRANCH   5   6
ATOM      6  C   UNL     1       1.125  -2.469   0.282  1.00  0.00    -0.034 A 
ATOM      7  C   UNL     1       0.453  -3.685   0.477  1.00  0.00    +0.005 A 
ATOM      8  C   UNL     1       1.056  -1.489   1.284  1.00  0.00    +0.005 A 
ATOM      9  C   UNL     1      -0.275  -3.914   1.646  1.00  0.00    +0.000 A 
ATOM     10  C   UNL     1       0.325  -1.718   2.450  1.00  0.00    +0.000 A 
ATOM     11  C   UNL     1      -0.339  -2.930   2.631  1.00  0.00    +0.000 A 
ENDBRANCH   5   6
ENDBRANCH   3   5
ENDBRANCH   2   3
ENDBRANCH   1   2
BRANCH   1  12
ATOM     12  C   UNL     1      -0.725   1.210  -2.056  1.00  0.00    -0.046 A 
ATOM     13  C   UNL     1      -1.334   1.724  -3.207  1.00  0.00    +0.004 A 
ATOM     14  C   UNL     1      -1.244   1.553  -0.798  1.00  0.00    +0.019 A 
ATOM     15  C   UNL     1      -2.436   2.574  -3.104  1.00  0.00    +0.001 A 
ATOM     16  C   UNL     1      -2.350   2.408  -0.688  1.00  0.00    +0.060 A 
ATOM     17  C   UNL     1      -2.943   2.918  -1.850  1.00  0.00    +0.016 A 
BRANCH  16  18
ATOM     18  C   UNL     1      -2.845   2.743   0.676  1.00  0.00    +0.337 C 
ATOM     19  O   UNL     1      -2.300   2.370   1.703  1.00  0.00    -0.246 OA
BRANCH  18  20
ATOM     20  O   UNL     1      -3.966   3.503   0.606  1.00  0.00    -0.465 OA
ATOM     21  C   UNL     1      -4.505   3.859   1.879  1.00  0.00    +0.282 C 
ENDBRANCH  18  20
ENDBRANCH  16  18
ENDBRANCH   1  12
TORSDOF 7
