REMARK SMILES COC(=O)c1cccc(CC[N@@H+](C)Cc2ccccc2)c1
REMARK SMILES IDX 10 1 11 2 12 3 13 4 14 6 15 7 16 8 20 9 17 10 19 11 18 12
REMARK SMILES IDX 9 13 8 14 21 15 7 16 5 17 6 18 3 19 4 20 2 21 1 22
REMARK H PARENT 12 5
REMARK INDEX MAP 4 1 3 2 2 3 1 4 25 5 15 6 16 7 17 8 21 9 18 10 20 11 19 12
REMARK INDEX MAP 5 13 6 14 10 15 7 16 9 17 8 18 11 19 12 20 13 21 14 22
ROOT
ATOM      1  C   UNL     1      -2.190  -0.209  -1.777  1.00  0.00    +0.097 C 
ENDROOT
BRANCH   1   2
ATOM      2  C   UNL     1      -1.486  -1.560  -1.574  1.00  0.00    +0.267 C 
BRANCH   2   3
ATOM      3  N   UNL     1      -0.980  -1.735  -0.152  1.00  0.00    -0.333 N 
ATOM      4  C   UNL     1      -2.077  -2.043   0.830  1.00  0.00    +0.333 C 
ATOM      5  H   UNL     1      -0.565  -0.841   0.140  1.00  0.00    +0.348 HD
BRANCH   3   6
ATOM      6  C   UNL     1       0.155  -2.738  -0.079  1.00  0.00    +0.298 C 
BRANCH   6   7
ATOM      7  C   UNL     1       0.917  -2.667   1.216  1.00  0.00    +0.006 A 
ATOM      8  C   UNL     1       1.743  -1.565   1.495  1.00  0.00    +0.009 A 
ATOM      9  C   UNL     1       0.801  -3.688   2.171  1.00  0.00    +0.009 A 
ATOM     10  C   UNL     1       2.430  -1.486   2.707  1.00  0.00    +0.001 A 
ATOM     11  C   UNL     1       1.490  -3.604   3.382  1.00  0.00    +0.001 A 
ATOM     12  C   UNL     1       2.301  -2.503   3.649  1.00  0.00    +0.000 A 
ENDBRANCH   6   7
ENDBRANCH   3   6
ENDBRANCH   2   3
ENDBRANCH   1   2
BRANCH   1  13
ATOM     13  C   UNL     1      -1.323   0.972  -1.405  1.00  0.00    -0.042 A 
ATOM     14  C   UNL     1      -1.632   1.752  -0.283  1.00  0.00    +0.004 A 
ATOM     15  C   UNL     1      -0.185   1.290  -2.166  1.00  0.00    +0.019 A 
ATOM     16  C   UNL     1      -0.809   2.816   0.087  1.00  0.00    +0.001 A 
ATOM     17  C   UNL     1       0.646   2.360  -1.797  1.00  0.00    +0.060 A 
ATOM     18  C   UNL     1       0.328   3.116  -0.663  1.00  0.00    +0.016 A 
BRANCH  17  19
ATOM     19  C   UNL     1       1.870   2.724  -2.563  1.00  0.00    +0.337 C 
ATOM     20  O   UNL     1       2.623   3.626  -2.236  1.00  0.00    -0.246 OA
BRANCH  19  21
ATOM     21  O   UNL     1       2.022   1.906  -3.634  1.00  0.00    -0.465 OA
ATOM     22  C   UNL     1       3.167   2.213  -4.435  1.00  0.00    +0.282 C 
ENDBRANCH  19  21
ENDBRANCH  17  19
ENDBRANCH   1  13
TORSDOF 7
