REMARK SMILES COC(=O)c1cccc(CCN(C)Cc2ccccc2)c1
REMARK SMILES IDX 10 1 11 2 12 3 13 4 14 5 15 6 16 7 20 8 17 9 19 10 18 11
REMARK SMILES IDX 9 12 8 13 21 14 7 15 5 16 6 17 3 18 4 19 2 20 1 21
REMARK H PARENT
REMARK INDEX MAP 4 1 3 2 2 3 1 4 15 5 16 6 17 7 21 8 18 9 20 10 19 11 5 12
REMARK INDEX MAP 6 13 10 14 7 15 9 16 8 17 11 18 12 19 13 20 14 21
ROOT
ATOM      1  C   UNL     1      -0.170   1.154  -2.110  1.00  0.00    +0.051 C 
ENDROOT
BRANCH   1   2
ATOM      2  C   UNL     1      -0.909   1.246  -0.760  1.00  0.00    +0.089 C 
BRANCH   2   3
ATOM      3  N   UNL     1      -0.953  -0.021  -0.001  1.00  0.00    -0.302 NA
ATOM      4  C   UNL     1      -1.901  -0.968  -0.597  1.00  0.00    +0.105 C 
BRANCH   3   5
ATOM      5  C   UNL     1      -1.296   0.245   1.409  1.00  0.00    +0.119 C 
BRANCH   5   6
ATOM      6  C   UNL     1      -1.058  -0.943   2.319  1.00  0.00    -0.034 A 
ATOM      7  C   UNL     1      -2.092  -1.454   3.115  1.00  0.00    +0.005 A 
ATOM      8  C   UNL     1       0.213  -1.534   2.395  1.00  0.00    +0.005 A 
ATOM      9  C   UNL     1      -1.861  -2.539   3.964  1.00  0.00    +0.000 A 
ATOM     10  C   UNL     1       0.442  -2.618   3.244  1.00  0.00    +0.000 A 
ATOM     11  C   UNL     1      -0.595  -3.120   4.027  1.00  0.00    +0.000 A 
ENDBRANCH   5   6
ENDBRANCH   3   5
ENDBRANCH   2   3
ENDBRANCH   1   2
BRANCH   1  12
ATOM     12  C   UNL     1       1.322   0.957  -1.968  1.00  0.00    -0.046 A 
ATOM     13  C   UNL     1       1.857  -0.324  -1.777  1.00  0.00    +0.004 A 
ATOM     14  C   UNL     1       2.192   2.056  -2.004  1.00  0.00    +0.019 A 
ATOM     15  C   UNL     1       3.233  -0.506  -1.632  1.00  0.00    +0.001 A 
ATOM     16  C   UNL     1       3.577   1.881  -1.859  1.00  0.00    +0.060 A 
ATOM     17  C   UNL     1       4.093   0.593  -1.674  1.00  0.00    +0.016 A 
BRANCH  16  18
ATOM     18  C   UNL     1       4.445   3.090  -1.907  1.00  0.00    +0.337 C 
ATOM     19  O   UNL     1       4.016   4.223  -2.063  1.00  0.00    -0.246 OA
BRANCH  18  20
ATOM     20  O   UNL     1       5.750   2.751  -1.756  1.00  0.00    -0.465 OA
ATOM     21  C   UNL     1       6.645   3.863  -1.791  1.00  0.00    +0.282 C 
ENDBRANCH  18  20
ENDBRANCH  16  18
ENDBRANCH   1  12
TORSDOF 7
