REMARK SMILES Fc1ccc([C@@H]2CC[NH2+]C[C@H]2COc2ccc3c(c2)OCO3)cc1
REMARK SMILES IDX 6 1 7 2 8 3 9 4 10 5 11 6 5 9 2 10 3 11 24 12 4 13 23 14
REMARK SMILES IDX 1 15 12 16 13 17 14 18 15 19 19 20 16 21 18 22 17 23 20 24
REMARK SMILES IDX 22 25 21 26
REMARK H PARENT 9 7 9 8
REMARK INDEX MAP 8 1 9 2 10 3 11 4 12 5 13 6 34 7 35 8 5 9 2 10 3 11 7 12 4 13
REMARK INDEX MAP 6 14 1 15 14 16 15 17 16 18 17 19 24 20 18 21 23 22 19 23
REMARK INDEX MAP 22 24 20 25 21 26
ROOT
ATOM      1  C   UNL     1      -2.487  -0.123   0.983  1.00  0.00    +0.037 C 
ATOM      2  C   UNL     1      -3.837  -0.032   0.239  1.00  0.00    +0.070 C 
ATOM      3  C   UNL     1      -4.484   1.330   0.400  1.00  0.00    +0.261 C 
ATOM      4  N   UNL     1      -3.524   2.373  -0.060  1.00  0.00    -0.346 N 
ATOM      5  C   UNL     1      -2.244   2.385   0.703  1.00  0.00    +0.268 C 
ATOM      6  C   UNL     1      -1.532   1.036   0.570  1.00  0.00    +0.089 C 
ATOM      7  H   UNL     1      -3.334   2.249  -1.066  1.00  0.00    +0.346 HD
ATOM      8  H   UNL     1      -3.974   3.296   0.018  1.00  0.00    +0.346 HD
ENDROOT
BRANCH   1   9
ATOM      9  C   UNL     1      -1.913  -1.516   0.786  1.00  0.00    -0.044 A 
ATOM     10  C   UNL     1      -0.865  -4.093   0.476  1.00  0.00    +0.123 A 
ATOM     11  C   UNL     1      -0.986  -3.266  -0.631  1.00  0.00    +0.039 A 
ATOM     12  C   UNL     1      -1.260  -3.661   1.734  1.00  0.00    +0.039 A 
ATOM     13  C   UNL     1      -1.509  -1.980  -0.479  1.00  0.00    +0.007 A 
ATOM     14  C   UNL     1      -1.784  -2.376   1.891  1.00  0.00    +0.007 A 
ATOM     15  F   UNL     1      -0.359  -5.324   0.328  1.00  0.00    -0.207 F 
ENDBRANCH   1   9
BRANCH   6  16
ATOM     16  C   UNL     1      -0.248   1.099   1.429  1.00  0.00    +0.239 C 
BRANCH  16  17
ATOM     17  O   UNL     1       0.624   0.002   1.195  1.00  0.00    -0.493 OA
BRANCH  17  18
ATOM     18  C   UNL     1       1.456   0.027   0.110  1.00  0.00    +0.123 A 
ATOM     19  C   UNL     1       2.169  -1.172  -0.096  1.00  0.00    +0.050 A 
ATOM     20  C   UNL     1       1.635   1.099  -0.766  1.00  0.00    +0.097 A 
ATOM     21  C   UNL     1       3.049  -1.319  -1.172  1.00  0.00    +0.054 A 
ATOM     22  C   UNL     1       2.509   0.927  -1.822  1.00  0.00    +0.169 A 
ATOM     23  C   UNL     1       3.196  -0.246  -2.021  1.00  0.00    +0.166 A 
ATOM     24  O   UNL     1       2.791   1.861  -2.771  1.00  0.00    -0.453 OA
ATOM     25  O   UNL     1       3.998  -0.199  -3.116  1.00  0.00    -0.454 OA
ATOM     26  C   UNL     1       3.767   1.151  -3.568  1.00  0.00    +0.468 C 
ENDBRANCH  17  18
ENDBRANCH  16  17
ENDBRANCH   6  16
TORSDOF 4
