REMARK SMILES Fc1ccc([C@@H]2CCNC[C@H]2COc2ccc3c(c2)OCO3)cc1
REMARK SMILES IDX 6 1 7 2 8 3 9 4 10 5 11 6 5 8 2 9 3 10 24 11 4 12 23 13 1 14
REMARK SMILES IDX 12 15 13 16 14 17 15 18 19 19 16 20 18 21 17 22 20 23 22 24
REMARK SMILES IDX 21 25
REMARK H PARENT 9 7
REMARK INDEX MAP 8 1 9 2 10 3 11 4 12 5 13 6 34 7 5 8 2 9 3 10 7 11 4 12 6 13
REMARK INDEX MAP 1 14 14 15 15 16 16 17 17 18 24 19 18 20 23 21 19 22 22 23
REMARK INDEX MAP 20 24 21 25
ROOT
ATOM      1  C   UNL     1       0.000  -1.131  -1.385  1.00  0.00    +0.028 C 
ATOM      2  C   UNL     1      -0.126  -1.723  -2.806  1.00  0.00    +0.024 C 
ATOM      3  C   UNL     1       0.941  -1.188  -3.756  1.00  0.00    +0.081 C 
ATOM      4  N   UNL     1       0.902   0.267  -3.875  1.00  0.00    -0.316 NA
ATOM      5  C   UNL     1       0.607   0.972  -2.626  1.00  0.00    +0.088 C 
ATOM      6  C   UNL     1       0.885   0.144  -1.363  1.00  0.00    +0.048 C 
ATOM      7  H   UNL     1       1.779   0.602  -4.275  1.00  0.00    +0.122 HD
ENDROOT
BRANCH   1   8
ATOM      8  C   UNL     1       0.481  -2.165  -0.372  1.00  0.00    -0.044 A 
ATOM      9  C   UNL     1       1.323  -4.031   1.533  1.00  0.00    +0.123 A 
ATOM     10  C   UNL     1       2.125  -3.768   0.430  1.00  0.00    +0.039 A 
ATOM     11  C   UNL     1       0.110  -3.379   1.705  1.00  0.00    +0.039 A 
ATOM     12  C   UNL     1       1.706  -2.835  -0.521  1.00  0.00    +0.007 A 
ATOM     13  C   UNL     1      -0.311  -2.447   0.755  1.00  0.00    +0.007 A 
ATOM     14  F   UNL     1       1.729  -4.925   2.445  1.00  0.00    -0.207 F 
ENDBRANCH   1   8
BRANCH   6  15
ATOM     15  C   UNL     1       0.662   0.988  -0.094  1.00  0.00    +0.235 C 
BRANCH  15  16
ATOM     16  O   UNL     1      -0.701   1.407  -0.022  1.00  0.00    -0.493 OA
BRANCH  16  17
ATOM     17  C   UNL     1      -1.077   2.126   1.080  1.00  0.00    +0.123 A 
ATOM     18  C   UNL     1      -2.442   2.478   1.103  1.00  0.00    +0.050 A 
ATOM     19  C   UNL     1      -0.239   2.514   2.128  1.00  0.00    +0.097 A 
ATOM     20  C   UNL     1      -2.982   3.213   2.163  1.00  0.00    +0.054 A 
ATOM     21  C   UNL     1      -0.798   3.239   3.163  1.00  0.00    +0.169 A 
ATOM     22  C   UNL     1      -2.130   3.579   3.181  1.00  0.00    +0.166 A 
ATOM     23  O   UNL     1      -0.133   3.696   4.258  1.00  0.00    -0.453 OA
ATOM     24  O   UNL     1      -2.470   4.290   4.288  1.00  0.00    -0.454 OA
ATOM     25  C   UNL     1      -1.200   4.361   4.967  1.00  0.00    +0.468 C 
ENDBRANCH  16  17
ENDBRANCH  15  16
ENDBRANCH   6  15
TORSDOF 4
