REMARK SMILES O=C(Cc1ccccc1)OCc1ccccc1
REMARK SMILES IDX 1 1 2 2 3 3 4 4 5 5 9 6 6 7 8 8 7 9 10 10 11 11 12 12 13 13
REMARK SMILES IDX 17 14 14 15 16 16 15 17
REMARK H PARENT
REMARK INDEX MAP 1 1 2 2 3 3 4 4 5 5 9 6 6 7 8 8 7 9 10 10 11 11 12 12 13 13
REMARK INDEX MAP 17 14 14 15 16 16 15 17
ROOT
ATOM      1  O   UNL     1      -1.221  -2.454   2.869  1.00  0.00    -0.252 OA
ATOM      2  C   UNL     1      -1.401  -2.365   1.661  1.00  0.00    +0.310 C 
ENDROOT
BRANCH   2   3
ATOM      3  C   UNL     1      -2.604  -1.711   1.025  1.00  0.00    +0.158 C 
BRANCH   3   4
ATOM      4  C   UNL     1      -2.520  -0.207   1.055  1.00  0.00    -0.037 A 
ATOM      5  C   UNL     1      -1.639   0.470   0.199  1.00  0.00    +0.004 A 
ATOM      6  C   UNL     1      -3.297   0.534   1.955  1.00  0.00    +0.004 A 
ATOM      7  C   UNL     1      -1.544   1.861   0.237  1.00  0.00    +0.000 A 
ATOM      8  C   UNL     1      -3.202   1.926   1.990  1.00  0.00    +0.000 A 
ATOM      9  C   UNL     1      -2.327   2.590   1.131  1.00  0.00    +0.000 A 
ENDBRANCH   3   4
ENDBRANCH   2   3
BRANCH   2  10
ATOM     10  O   UNL     1      -0.543  -2.805   0.700  1.00  0.00    -0.461 OA
BRANCH  10  11
ATOM     11  C   UNL     1       0.728  -3.275   1.161  1.00  0.00    +0.268 C 
BRANCH  11  12
ATOM     12  C   UNL     1       1.752  -2.200   0.908  1.00  0.00    -0.011 A 
ATOM     13  C   UNL     1       2.481  -2.172  -0.289  1.00  0.00    +0.007 A 
ATOM     14  C   UNL     1       1.950  -1.179   1.849  1.00  0.00    +0.007 A 
ATOM     15  C   UNL     1       3.405  -1.154  -0.530  1.00  0.00    +0.000 A 
ATOM     16  C   UNL     1       2.873  -0.161   1.605  1.00  0.00    +0.000 A 
ATOM     17  C   UNL     1       3.602  -0.150   0.417  1.00  0.00    +0.000 A 
ENDBRANCH  11  12
ENDBRANCH  10  11
ENDBRANCH   2  10
TORSDOF 5
