REMARK SMILES C[NH+](C)CCOC(c1ccccc1)c1ccccc1
REMARK SMILES IDX 5 1 4 2 2 3 1 4 3 5 6 7 7 8 8 9 9 10 13 11 10 12 12 13 11 14
REMARK SMILES IDX 14 15 15 16 19 17 16 18 18 19 17 20
REMARK H PARENT 2 6
REMARK INDEX MAP 5 1 4 2 2 3 1 4 3 5 23 6 6 7 7 8 8 9 9 10 13 11 10 12 12 13
REMARK INDEX MAP 11 14 14 15 15 16 19 17 16 18 18 19 17 20
ROOT
ATOM      1  C   UNL     1      -2.218  -0.784   0.644  1.00  0.00    +0.222 C 
ENDROOT
BRANCH   1   2
ATOM      2  C   UNL     1      -1.405  -1.798   1.460  1.00  0.00    +0.290 C 
BRANCH   2   3
ATOM      3  N   UNL     1      -1.002  -1.190   2.793  1.00  0.00    -0.338 N 
ATOM      4  C   UNL     1      -2.130  -1.074   3.773  1.00  0.00    +0.332 C 
ATOM      5  C   UNL     1       0.198  -1.857   3.394  1.00  0.00    +0.332 C 
ATOM      6  H   UNL     1      -0.718  -0.223   2.560  1.00  0.00    +0.347 HD
ENDBRANCH   2   3
ENDBRANCH   1   2
BRANCH   1   7
ATOM      7  O   UNL     1      -1.632   0.518   0.742  1.00  0.00    -0.363 OA
BRANCH   7   8
ATOM      8  C   UNL     1      -0.619   0.798  -0.247  1.00  0.00    +0.179 C 
BRANCH   8   9
ATOM      9  C   UNL     1      -0.898   2.119  -0.948  1.00  0.00    -0.015 A 
ATOM     10  C   UNL     1      -0.105   2.499  -2.046  1.00  0.00    +0.007 A 
ATOM     11  C   UNL     1      -1.930   2.981  -0.543  1.00  0.00    +0.007 A 
ATOM     12  C   UNL     1      -0.338   3.703  -2.714  1.00  0.00    +0.000 A 
ATOM     13  C   UNL     1      -2.161   4.184  -1.214  1.00  0.00    +0.000 A 
ATOM     14  C   UNL     1      -1.366   4.544  -2.298  1.00  0.00    +0.000 A 
ENDBRANCH   8   9
BRANCH   8  15
ATOM     15  C   UNL     1       0.715   0.774   0.483  1.00  0.00    -0.015 A 
ATOM     16  C   UNL     1       1.720  -0.127   0.096  1.00  0.00    +0.007 A 
ATOM     17  C   UNL     1       0.965   1.642   1.560  1.00  0.00    +0.007 A 
ATOM     18  C   UNL     1       2.936  -0.168   0.780  1.00  0.00    +0.000 A 
ATOM     19  C   UNL     1       2.180   1.597   2.242  1.00  0.00    +0.000 A 
ATOM     20  C   UNL     1       3.163   0.690   1.855  1.00  0.00    +0.000 A 
ENDBRANCH   8  15
ENDBRANCH   7   8
ENDBRANCH   1   7
TORSDOF 6
