REMARK SMILES CN(C)CCOC(c1ccccc1)c1ccccc1
REMARK SMILES IDX 5 1 4 2 2 3 1 4 3 5 6 6 7 7 8 8 9 9 13 10 10 11 12 12 11 13
REMARK SMILES IDX 14 14 15 15 19 16 16 17 18 18 17 19
REMARK H PARENT
REMARK INDEX MAP 5 1 4 2 2 3 1 4 3 5 6 6 7 7 8 8 9 9 13 10 10 11 12 12 11 13
REMARK INDEX MAP 14 14 15 15 19 16 16 17 18 18 17 19
ROOT
ATOM      1  C   UNL     1       2.040   2.881   0.573  1.00  0.00    +0.177 C 
ENDROOT
BRANCH   1   2
ATOM      2  C   UNL     1       1.649   3.136  -0.900  1.00  0.00    +0.112 C 
BRANCH   2   3
ATOM      3  N   UNL     1       1.758   1.971  -1.799  1.00  0.00    -0.307 NA
ATOM      4  C   UNL     1       1.265   2.312  -3.134  1.00  0.00    +0.105 C 
ATOM      5  C   UNL     1       3.128   1.466  -1.881  1.00  0.00    +0.105 C 
ENDBRANCH   2   3
ENDBRANCH   1   2
BRANCH   1   6
ATOM      6  O   UNL     1       1.498   1.684   1.135  1.00  0.00    -0.367 OA
BRANCH   6   7
ATOM      7  C   UNL     1       0.077   1.700   1.345  1.00  0.00    +0.178 C 
BRANCH   7   8
ATOM      8  C   UNL     1      -0.449   0.262   1.328  1.00  0.00    -0.015 A 
ATOM      9  C   UNL     1       0.169  -0.702   0.511  1.00  0.00    +0.007 A 
ATOM     10  C   UNL     1      -1.600  -0.122   2.039  1.00  0.00    +0.007 A 
ATOM     11  C   UNL     1      -0.319  -2.009   0.438  1.00  0.00    +0.000 A 
ATOM     12  C   UNL     1      -2.087  -1.430   1.967  1.00  0.00    +0.000 A 
ATOM     13  C   UNL     1      -1.446  -2.373   1.170  1.00  0.00    +0.000 A 
ENDBRANCH   7   8
BRANCH   7  14
ATOM     14  C   UNL     1      -0.208   2.463   2.633  1.00  0.00    -0.015 A 
ATOM     15  C   UNL     1      -1.155   3.500   2.651  1.00  0.00    +0.007 A 
ATOM     16  C   UNL     1       0.464   2.142   3.825  1.00  0.00    +0.007 A 
ATOM     17  C   UNL     1      -1.421   4.198   3.830  1.00  0.00    +0.000 A 
ATOM     18  C   UNL     1       0.196   2.841   5.002  1.00  0.00    +0.000 A 
ATOM     19  C   UNL     1      -0.745   3.868   5.004  1.00  0.00    +0.000 A 
ENDBRANCH   7  14
ENDBRANCH   6   7
ENDBRANCH   1   6
TORSDOF 6
