REMARK SMILES CCNC(=O)Nc1sc2ccccc2c1C(=O)N1CCC(N2CCC[C@@]3(C2)CC(C)(C)OC3=O)CC1
REMARK SMILES IDX 14 1 13 2 12 3 11 4 10 5 9 6 8 7 7 8 15 9 16 10 18 11 17 12
REMARK SMILES IDX 19 13 36 14 20 15 35 16 21 17 22 18 23 19 27 20 24 21 26 22
REMARK SMILES IDX 25 23 33 24 28 25 34 26 32 27 29 28 30 29 31 30 6 31 4 32
REMARK SMILES IDX 5 33 3 34 2 37 1 38
REMARK H PARENT 6 35 3 36
REMARK INDEX MAP 1 1 2 2 3 3 4 4 5 5 6 6 7 7 8 8 13 9 14 10 15 11 16 12 17 13
REMARK INDEX MAP 19 14 18 15 20 16 21 17 22 18 23 19 26 20 24 21 27 22 25 23
REMARK INDEX MAP 28 24 31 25 29 26 30 27 32 28 33 29 34 30 9 31 10 32 11 33
REMARK INDEX MAP 12 34 41 35 42 36 35 37 36 38
ROOT
ATOM      1  C   UNL     1       0.994   3.255  -3.110  1.00  0.00    +0.007 A 
ATOM      2  C   UNL     1       2.034   2.710  -3.909  1.00  0.00    +0.010 A 
ATOM      3  C   UNL     1       2.006   2.826  -5.302  1.00  0.00    +0.001 A 
ATOM      4  C   UNL     1       0.959   3.486  -5.927  1.00  0.00    +0.002 A 
ATOM      5  C   UNL     1      -0.070   4.052  -5.172  1.00  0.00    +0.020 A 
ATOM      6  C   UNL     1      -0.032   3.938  -3.768  1.00  0.00    +0.037 A 
ATOM      7  S   UNL     1      -1.165   4.585  -2.654  1.00  0.00    -0.117 S 
ATOM      8  C   UNL     1      -0.293   4.040  -1.313  1.00  0.00    +0.110 A 
ATOM      9  C   UNL     1       0.785   3.249  -1.675  1.00  0.00    +0.082 A 
ENDROOT
BRANCH   9  10
ATOM     10  C   UNL     1       1.610   2.577  -0.671  1.00  0.00    +0.257 C 
ATOM     11  N   UNL     1       1.897   1.221  -0.858  1.00  0.00    -0.338 N 
ATOM     12  O   UNL     1       1.976   3.184   0.335  1.00  0.00    -0.269 OA
ATOM     13  C   UNL     1       1.068   0.326  -1.666  1.00  0.00    +0.121 C 
ATOM     14  C   UNL     1       2.793   0.563   0.074  1.00  0.00    +0.121 C 
ATOM     15  C   UNL     1       0.931  -1.073  -1.048  1.00  0.00    +0.041 C 
ATOM     16  C   UNL     1       2.011  -0.265   1.089  1.00  0.00    +0.041 C 
ATOM     17  C   UNL     1       0.771  -0.983   0.485  1.00  0.00    +0.060 C 
BRANCH  17  18
ATOM     18  N   UNL     1       0.554  -2.292   1.162  1.00  0.00    -0.299 NA
ATOM     19  C   UNL     1       0.208  -2.112   2.584  1.00  0.00    +0.085 C 
ATOM     20  C   UNL     1      -0.498  -3.109   0.512  1.00  0.00    +0.103 C 
ATOM     21  C   UNL     1       0.302  -3.438   3.339  1.00  0.00    +0.017 C 
ATOM     22  C   UNL     1      -0.938  -4.366   1.304  1.00  0.00    +0.084 C 
ATOM     23  C   UNL     1      -0.005  -4.665   2.482  1.00  0.00    +0.021 C 
ATOM     24  C   UNL     1      -2.376  -4.199   1.758  1.00  0.00    +0.314 C 
ATOM     25  C   UNL     1      -1.068  -5.610   0.415  1.00  0.00    +0.068 C 
ATOM     26  O   UNL     1      -2.758  -3.504   2.686  1.00  0.00    -0.252 OA
ATOM     27  O   UNL     1      -3.228  -4.915   0.967  1.00  0.00    -0.459 OA
ATOM     28  C   UNL     1      -2.511  -5.600  -0.066  1.00  0.00    +0.108 C 
ATOM     29  C   UNL     1      -2.709  -4.856  -1.388  1.00  0.00    +0.056 C 
ATOM     30  C   UNL     1      -3.072  -7.017  -0.183  1.00  0.00    +0.056 C 
ENDBRANCH  17  18
ENDBRANCH   9  10
BRANCH   8  31
ATOM     31  N   UNL     1      -0.674   4.347  -0.015  1.00  0.00    -0.299 N 
ATOM     32  C   UNL     1      -1.704   5.171   0.387  1.00  0.00    +0.319 C 
ATOM     33  O   UNL     1      -2.485   5.793  -0.319  1.00  0.00    -0.248 OA
ATOM     34  N   UNL     1      -1.764   5.227   1.770  1.00  0.00    -0.338 N 
ATOM     35  H   UNL     1      -0.006   4.084   0.701  1.00  0.00    +0.172 HD
ATOM     36  H   UNL     1      -1.350   4.460   2.278  1.00  0.00    +0.165 HD
BRANCH  34  37
ATOM     37  C   UNL     1      -2.803   5.979   2.443  1.00  0.00    +0.114 C 
ATOM     38  C   UNL     1      -4.108   5.207   2.513  1.00  0.00    +0.027 C 
ENDBRANCH  34  37
ENDBRANCH   8  31
TORSDOF 4
