REMARK SMILES COC(=O)c1cccc(CCN(C)Cc2ccccc2)c1
REMARK SMILES IDX 10 1 11 2 12 3 13 4 14 5 15 6 16 7 20 8 17 9 19 10 18 11
REMARK SMILES IDX 9 12 8 13 21 14 7 15 5 16 6 17 3 18 4 19 2 20 1 21
REMARK H PARENT
REMARK INDEX MAP 4 1 3 2 2 3 1 4 15 5 16 6 17 7 21 8 18 9 20 10 19 11 5 12
REMARK INDEX MAP 6 13 10 14 7 15 9 16 8 17 11 18 12 19 13 20 14 21
ROOT
ATOM      1  C   UNL     1      -0.477  -2.773  -0.625  1.00  0.00    +0.051 C 
ENDROOT
BRANCH   1   2
ATOM      2  C   UNL     1       0.988  -2.323  -0.819  1.00  0.00    +0.089 C 
BRANCH   2   3
ATOM      3  N   UNL     1       1.606  -1.694   0.368  1.00  0.00    -0.302 NA
ATOM      4  C   UNL     1       3.067  -1.692   0.210  1.00  0.00    +0.105 C 
BRANCH   3   5
ATOM      5  C   UNL     1       1.113  -0.316   0.573  1.00  0.00    +0.119 C 
BRANCH   5   6
ATOM      6  C   UNL     1       1.570   0.307   1.879  1.00  0.00    -0.034 A 
ATOM      7  C   UNL     1       1.302  -0.326   3.102  1.00  0.00    +0.005 A 
ATOM      8  C   UNL     1       2.238   1.540   1.886  1.00  0.00    +0.005 A 
ATOM      9  C   UNL     1       1.705   0.255   4.305  1.00  0.00    +0.000 A 
ATOM     10  C   UNL     1       2.639   2.120   3.091  1.00  0.00    +0.000 A 
ATOM     11  C   UNL     1       2.373   1.478   4.299  1.00  0.00    +0.000 A 
ENDBRANCH   5   6
ENDBRANCH   3   5
ENDBRANCH   2   3
ENDBRANCH   1   2
BRANCH   1  12
ATOM     12  C   UNL     1      -1.538  -1.757  -0.983  1.00  0.00    -0.046 A 
ATOM     13  C   UNL     1      -2.482  -1.356  -0.027  1.00  0.00    +0.004 A 
ATOM     14  C   UNL     1      -1.622  -1.229  -2.282  1.00  0.00    +0.019 A 
ATOM     15  C   UNL     1      -3.473  -0.428  -0.350  1.00  0.00    +0.001 A 
ATOM     16  C   UNL     1      -2.616  -0.295  -2.613  1.00  0.00    +0.060 A 
ATOM     17  C   UNL     1      -3.539   0.103  -1.638  1.00  0.00    +0.016 A 
BRANCH  16  18
ATOM     18  C   UNL     1      -2.736   0.295  -3.974  1.00  0.00    +0.337 C 
ATOM     19  O   UNL     1      -3.602   1.096  -4.289  1.00  0.00    -0.246 OA
BRANCH  18  20
ATOM     20  O   UNL     1      -1.760  -0.177  -4.790  1.00  0.00    -0.465 OA
ATOM     21  C   UNL     1      -1.812   0.348  -6.118  1.00  0.00    +0.282 C 
ENDBRANCH  18  20
ENDBRANCH  16  18
ENDBRANCH   1  12
TORSDOF 7
