REMARK SMILES COC(=O)c1cccc(CC[N@@H+](C)Cc2ccccc2)c1
REMARK SMILES IDX 10 1 11 2 12 3 13 4 14 6 15 7 16 8 20 9 17 10 19 11 18 12
REMARK SMILES IDX 9 13 8 14 21 15 7 16 5 17 6 18 3 19 4 20 2 21 1 22
REMARK H PARENT 12 5
REMARK INDEX MAP 4 1 3 2 2 3 1 4 25 5 15 6 16 7 17 8 21 9 18 10 20 11 19 12
REMARK INDEX MAP 5 13 6 14 10 15 7 16 9 17 8 18 11 19 12 20 13 21 14 22
ROOT
ATOM      1  C   UNL     1      -1.548   2.591   0.485  1.00  0.00    +0.097 C 
ENDROOT
BRANCH   1   2
ATOM      2  C   UNL     1      -1.473   1.099   0.123  1.00  0.00    +0.267 C 
BRANCH   2   3
ATOM      3  N   UNL     1      -0.477   0.344   0.988  1.00  0.00    -0.333 N 
ATOM      4  C   UNL     1      -0.943   0.156   2.403  1.00  0.00    +0.333 C 
ATOM      5  H   UNL     1       0.369   0.927   1.036  1.00  0.00    +0.348 HD
BRANCH   3   6
ATOM      6  C   UNL     1      -0.000  -0.950   0.349  1.00  0.00    +0.298 C 
BRANCH   6   7
ATOM      7  C   UNL     1      -1.057  -2.002   0.145  1.00  0.00    +0.006 A 
ATOM      8  C   UNL     1      -1.795  -2.054  -1.048  1.00  0.00    +0.009 A 
ATOM      9  C   UNL     1      -1.328  -2.947   1.147  1.00  0.00    +0.009 A 
ATOM     10  C   UNL     1      -2.790  -3.017  -1.226  1.00  0.00    +0.001 A 
ATOM     11  C   UNL     1      -2.323  -3.909   0.966  1.00  0.00    +0.001 A 
ATOM     12  C   UNL     1      -3.055  -3.941  -0.218  1.00  0.00    +0.000 A 
ENDBRANCH   6   7
ENDBRANCH   3   6
ENDBRANCH   2   3
ENDBRANCH   1   2
BRANCH   1  13
ATOM     13  C   UNL     1      -0.215   3.296   0.397  1.00  0.00    -0.042 A 
ATOM     14  C   UNL     1       0.407   3.783   1.555  1.00  0.00    +0.004 A 
ATOM     15  C   UNL     1       0.423   3.468  -0.843  1.00  0.00    +0.019 A 
ATOM     16  C   UNL     1       1.651   4.409   1.480  1.00  0.00    +0.001 A 
ATOM     17  C   UNL     1       1.676   4.097  -0.923  1.00  0.00    +0.060 A 
ATOM     18  C   UNL     1       2.287   4.561   0.247  1.00  0.00    +0.016 A 
BRANCH  17  19
ATOM     19  C   UNL     1       2.394   4.290  -2.214  1.00  0.00    +0.337 C 
ATOM     20  O   UNL     1       3.492   4.813  -2.298  1.00  0.00    -0.246 OA
BRANCH  19  21
ATOM     21  O   UNL     1       1.665   3.791  -3.243  1.00  0.00    -0.465 OA
ATOM     22  C   UNL     1       2.283   3.964  -4.522  1.00  0.00    +0.282 C 
ENDBRANCH  19  21
ENDBRANCH  17  19
ENDBRANCH   1  13
TORSDOF 7
