MODEL 1
REMARK VINA RESULT:    -7.329      0.000      0.000
REMARK INTER + INTRA:         -12.834
REMARK INTER:                 -10.328
REMARK INTRA:                  -2.506
REMARK UNBOUND:                -2.506
REMARK SMILES COC(=O)c1cccc(CC[N@H+](C)Cc2ccccc2)c1
REMARK SMILES IDX 10 1 11 2 12 3 13 4 14 6 15 7 16 8 20 9 17 10 19 11 18 12
REMARK SMILES IDX 9 13 8 14 21 15 7 16 5 17 6 18 3 19 4 20 2 21 1 22
REMARK H PARENT 12 5
REMARK INDEX MAP 4 1 3 2 2 3 1 4 25 5 15 6 16 7 17 8 21 9 18 10 20 11 19 12
REMARK INDEX MAP 5 13 6 14 10 15 7 16 9 17 8 18 11 19 12 20 13 21 14 22
ROOT
ATOM      1  C   UNL     1     136.308 122.244 124.351  1.00  0.00    +0.097 C 
ENDROOT
BRANCH   1   2
ATOM      2  C   UNL     1     135.023 121.486 124.720  1.00  0.00    +0.267 C 
BRANCH   2   3
ATOM      3  N   UNL     1     134.180 122.125 125.805  1.00  0.00    -0.333 N 
ATOM      4  C   UNL     1     134.328 121.484 127.156  1.00  0.00    +0.333 C 
ATOM      5  H   UNL     1     134.572 123.068 125.919  1.00  0.00    +0.348 HD
BRANCH   3   6
ATOM      6  C   UNL     1     132.734 122.372 125.420  1.00  0.00    +0.298 C 
BRANCH   6   7
ATOM      7  C   UNL     1     132.556 123.666 124.672  1.00  0.00    +0.006 A 
ATOM      8  C   UNL     1     132.710 124.897 125.327  1.00  0.00    +0.009 A 
ATOM      9  C   UNL     1     132.257 123.658 123.300  1.00  0.00    +0.009 A 
ATOM     10  C   UNL     1     132.574 126.094 124.623  1.00  0.00    +0.001 A 
ATOM     11  C   UNL     1     132.123 124.858 122.600  1.00  0.00    +0.001 A 
ATOM     12  C   UNL     1     132.284 126.074 123.261  1.00  0.00    +0.000 A 
ENDBRANCH   6   7
ENDBRANCH   3   6
ENDBRANCH   2   3
ENDBRANCH   1   2
BRANCH   1  13
ATOM     13  C   UNL     1     136.114 123.506 123.548  1.00  0.00    -0.042 A 
ATOM     14  C   UNL     1     136.260 124.761 124.156  1.00  0.00    +0.004 A 
ATOM     15  C   UNL     1     135.754 123.448 122.191  1.00  0.00    +0.019 A 
ATOM     16  C   UNL     1     136.086 125.932 123.418  1.00  0.00    +0.001 A 
ATOM     17  C   UNL     1     135.581 124.622 121.442  1.00  0.00    +0.060 A 
ATOM     18  C   UNL     1     135.755 125.865 122.065  1.00  0.00    +0.016 A 
BRANCH  17  19
ATOM     19  C   UNL     1     135.214 124.606 119.999  1.00  0.00    +0.337 C 
ATOM     20  O   UNL     1     134.657 125.535 119.436  1.00  0.00    -0.246 OA
BRANCH  19  21
ATOM     21  O   UNL     1     135.608 123.443 119.422  1.00  0.00    -0.465 OA
ATOM     22  C   UNL     1     135.068 123.241 118.113  1.00  0.00    +0.282 C 
ENDBRANCH  19  21
ENDBRANCH  17  19
ENDBRANCH   1  13
TORSDOF 7
ENDMDL
MODEL 2
REMARK VINA RESULT:    -7.236      3.261      6.164
REMARK INTER + INTRA:         -12.703
REMARK INTER:                 -10.525
REMARK INTRA:                  -2.178
REMARK UNBOUND:                -2.506
REMARK SMILES COC(=O)c1cccc(CC[N@H+](C)Cc2ccccc2)c1
REMARK SMILES IDX 10 1 11 2 12 3 13 4 14 6 15 7 16 8 20 9 17 10 19 11 18 12
REMARK SMILES IDX 9 13 8 14 21 15 7 16 5 17 6 18 3 19 4 20 2 21 1 22
REMARK H PARENT 12 5
REMARK INDEX MAP 4 1 3 2 2 3 1 4 25 5 15 6 16 7 17 8 21 9 18 10 20 11 19 12
REMARK INDEX MAP 5 13 6 14 10 15 7 16 9 17 8 18 11 19 12 20 13 21 14 22
ROOT
ATOM      1  C   UNL     1     132.809 125.371 122.271  1.00  0.00    +0.097 C 
ENDROOT
BRANCH   1   2
ATOM      2  C   UNL     1     134.186 124.822 121.868  1.00  0.00    +0.267 C 
BRANCH   2   3
ATOM      3  N   UNL     1     135.283 124.995 122.900  1.00  0.00    -0.333 N 
ATOM      4  C   UNL     1     136.165 126.189 122.667  1.00  0.00    +0.333 C 
ATOM      5  H   UNL     1     134.786 125.203 123.776  1.00  0.00    +0.348 HD
BRANCH   3   6
ATOM      6  C   UNL     1     136.063 123.732 123.212  1.00  0.00    +0.298 C 
BRANCH   6   7
ATOM      7  C   UNL     1     135.581 123.059 124.470  1.00  0.00    +0.006 A 
ATOM      8  C   UNL     1     135.329 123.808 125.629  1.00  0.00    +0.009 A 
ATOM      9  C   UNL     1     135.353 121.674 124.492  1.00  0.00    +0.009 A 
ATOM     10  C   UNL     1     134.852 123.185 126.783  1.00  0.00    +0.001 A 
ATOM     11  C   UNL     1     134.876 121.055 125.649  1.00  0.00    +0.001 A 
ATOM     12  C   UNL     1     134.624 121.811 126.792  1.00  0.00    +0.000 A 
ENDBRANCH   6   7
ENDBRANCH   3   6
ENDBRANCH   2   3
ENDBRANCH   1   2
BRANCH   1  13
ATOM     13  C   UNL     1     132.249 124.844 123.569  1.00  0.00    -0.042 A 
ATOM     14  C   UNL     1     132.100 123.464 123.768  1.00  0.00    +0.004 A 
ATOM     15  C   UNL     1     131.839 125.724 124.585  1.00  0.00    +0.019 A 
ATOM     16  C   UNL     1     131.588 122.971 124.968  1.00  0.00    +0.001 A 
ATOM     17  C   UNL     1     131.326 125.233 125.797  1.00  0.00    +0.060 A 
ATOM     18  C   UNL     1     131.209 123.850 125.982  1.00  0.00    +0.016 A 
BRANCH  17  19
ATOM     19  C   UNL     1     130.895 126.129 126.905  1.00  0.00    +0.337 C 
ATOM     20  O   UNL     1     130.051 125.818 127.730  1.00  0.00    -0.246 OA
BRANCH  19  21
ATOM     21  O   UNL     1     131.584 127.296 126.869  1.00  0.00    -0.465 OA
ATOM     22  C   UNL     1     131.301 128.165 127.970  1.00  0.00    +0.282 C 
ENDBRANCH  19  21
ENDBRANCH  17  19
ENDBRANCH   1  13
TORSDOF 7
ENDMDL
MODEL 3
REMARK VINA RESULT:    -7.197      1.546      3.458
REMARK INTER + INTRA:         -12.648
REMARK INTER:                 -10.341
REMARK INTRA:                  -2.307
REMARK UNBOUND:                -2.506
REMARK SMILES COC(=O)c1cccc(CC[N@H+](C)Cc2ccccc2)c1
REMARK SMILES IDX 10 1 11 2 12 3 13 4 14 6 15 7 16 8 20 9 17 10 19 11 18 12
REMARK SMILES IDX 9 13 8 14 21 15 7 16 5 17 6 18 3 19 4 20 2 21 1 22
REMARK H PARENT 12 5
REMARK INDEX MAP 4 1 3 2 2 3 1 4 25 5 15 6 16 7 17 8 21 9 18 10 20 11 19 12
REMARK INDEX MAP 5 13 6 14 10 15 7 16 9 17 8 18 11 19 12 20 13 21 14 22
ROOT
ATOM      1  C   UNL     1     132.165 125.892 123.152  1.00  0.00    +0.097 C 
ENDROOT
BRANCH   1   2
ATOM      2  C   UNL     1     132.260 125.958 124.685  1.00  0.00    +0.267 C 
BRANCH   2   3
ATOM      3  N   UNL     1     131.866 124.691 125.416  1.00  0.00    -0.333 N 
ATOM      4  C   UNL     1     130.547 124.778 126.132  1.00  0.00    +0.333 C 
ATOM      5  H   UNL     1     131.715 123.997 124.673  1.00  0.00    +0.348 HD
BRANCH   3   6
ATOM      6  C   UNL     1     132.964 124.084 126.267  1.00  0.00    +0.298 C 
BRANCH   6   7
ATOM      7  C   UNL     1     134.160 123.671 125.448  1.00  0.00    +0.006 A 
ATOM      8  C   UNL     1     134.013 122.799 124.360  1.00  0.00    +0.009 A 
ATOM      9  C   UNL     1     135.435 124.176 125.749  1.00  0.00    +0.009 A 
ATOM     10  C   UNL     1     135.118 122.444 123.585  1.00  0.00    +0.001 A 
ATOM     11  C   UNL     1     136.537 123.818 124.971  1.00  0.00    +0.001 A 
ATOM     12  C   UNL     1     136.377 122.955 123.889  1.00  0.00    +0.000 A 
ENDBRANCH   6   7
ENDBRANCH   3   6
ENDBRANCH   2   3
ENDBRANCH   1   2
BRANCH   1  13
ATOM     13  C   UNL     1     133.480 125.782 122.421  1.00  0.00    -0.042 A 
ATOM     14  C   UNL     1     134.636 126.373 122.948  1.00  0.00    +0.004 A 
ATOM     15  C   UNL     1     133.562 125.115 121.186  1.00  0.00    +0.019 A 
ATOM     16  C   UNL     1     135.855 126.270 122.278  1.00  0.00    +0.001 A 
ATOM     17  C   UNL     1     134.787 125.005 120.509  1.00  0.00    +0.060 A 
ATOM     18  C   UNL     1     135.934 125.583 121.067  1.00  0.00    +0.016 A 
BRANCH  17  19
ATOM     19  C   UNL     1     134.922 124.294 119.208  1.00  0.00    +0.337 C 
ATOM     20  O   UNL     1     135.544 123.254 119.072  1.00  0.00    -0.246 OA
BRANCH  19  21
ATOM     21  O   UNL     1     134.246 124.953 118.234  1.00  0.00    -0.465 OA
ATOM     22  C   UNL     1     133.528 124.089 117.347  1.00  0.00    +0.282 C 
ENDBRANCH  19  21
ENDBRANCH  17  19
ENDBRANCH   1  13
TORSDOF 7
ENDMDL
MODEL 4
REMARK VINA RESULT:    -6.971      2.915      5.020
REMARK INTER + INTRA:         -12.330
REMARK INTER:                  -9.786
REMARK INTRA:                  -2.544
REMARK UNBOUND:                -2.506
REMARK SMILES COC(=O)c1cccc(CC[N@H+](C)Cc2ccccc2)c1
REMARK SMILES IDX 10 1 11 2 12 3 13 4 14 6 15 7 16 8 20 9 17 10 19 11 18 12
REMARK SMILES IDX 9 13 8 14 21 15 7 16 5 17 6 18 3 19 4 20 2 21 1 22
REMARK H PARENT 12 5
REMARK INDEX MAP 4 1 3 2 2 3 1 4 25 5 15 6 16 7 17 8 21 9 18 10 20 11 19 12
REMARK INDEX MAP 5 13 6 14 10 15 7 16 9 17 8 18 11 19 12 20 13 21 14 22
ROOT
ATOM      1  C   UNL     1     136.199 123.299 121.678  1.00  0.00    +0.097 C 
ENDROOT
BRANCH   1   2
ATOM      2  C   UNL     1     135.944 124.500 120.754  1.00  0.00    +0.267 C 
BRANCH   2   3
ATOM      3  N   UNL     1     134.500 124.709 120.343  1.00  0.00    -0.333 N 
ATOM      4  C   UNL     1     134.283 124.754 118.857  1.00  0.00    +0.333 C 
ATOM      5  H   UNL     1     134.015 123.858 120.652  1.00  0.00    +0.348 HD
BRANCH   3   6
ATOM      6  C   UNL     1     133.788 125.826 121.081  1.00  0.00    +0.298 C 
BRANCH   6   7
ATOM      7  C   UNL     1     133.191 125.361 122.383  1.00  0.00    +0.006 A 
ATOM      8  C   UNL     1     132.636 124.078 122.496  1.00  0.00    +0.009 A 
ATOM      9  C   UNL     1     133.206 126.198 123.510  1.00  0.00    +0.009 A 
ATOM     10  C   UNL     1     132.112 123.639 123.713  1.00  0.00    +0.001 A 
ATOM     11  C   UNL     1     132.681 125.755 124.725  1.00  0.00    +0.001 A 
ATOM     12  C   UNL     1     132.138 124.476 124.826  1.00  0.00    +0.000 A 
ENDBRANCH   6   7
ENDBRANCH   3   6
ENDBRANCH   2   3
ENDBRANCH   1   2
BRANCH   1  13
ATOM     13  C   UNL     1     136.100 123.580 123.157  1.00  0.00    -0.042 A 
ATOM     14  C   UNL     1     136.514 124.817 123.672  1.00  0.00    +0.004 A 
ATOM     15  C   UNL     1     135.625 122.601 124.045  1.00  0.00    +0.019 A 
ATOM     16  C   UNL     1     136.421 125.084 125.038  1.00  0.00    +0.001 A 
ATOM     17  C   UNL     1     135.525 122.865 125.420  1.00  0.00    +0.060 A 
ATOM     18  C   UNL     1     135.922 124.116 125.909  1.00  0.00    +0.016 A 
BRANCH  17  19
ATOM     19  C   UNL     1     135.012 121.862 126.394  1.00  0.00    +0.337 C 
ATOM     20  O   UNL     1     135.428 121.761 127.537  1.00  0.00    -0.246 OA
BRANCH  19  21
ATOM     21  O   UNL     1     134.024 121.119 125.835  1.00  0.00    -0.465 OA
ATOM     22  C   UNL     1     132.824 121.082 126.614  1.00  0.00    +0.282 C 
ENDBRANCH  19  21
ENDBRANCH  17  19
ENDBRANCH   1  13
TORSDOF 7
ENDMDL
MODEL 5
REMARK VINA RESULT:    -6.937      1.678      3.531
REMARK INTER + INTRA:         -12.282
REMARK INTER:                 -11.066
REMARK INTRA:                  -1.215
REMARK UNBOUND:                -2.506
REMARK SMILES COC(=O)c1cccc(CC[N@H+](C)Cc2ccccc2)c1
REMARK SMILES IDX 10 1 11 2 12 3 13 4 14 6 15 7 16 8 20 9 17 10 19 11 18 12
REMARK SMILES IDX 9 13 8 14 21 15 7 16 5 17 6 18 3 19 4 20 2 21 1 22
REMARK H PARENT 12 5
REMARK INDEX MAP 4 1 3 2 2 3 1 4 25 5 15 6 16 7 17 8 21 9 18 10 20 11 19 12
REMARK INDEX MAP 5 13 6 14 10 15 7 16 9 17 8 18 11 19 12 20 13 21 14 22
ROOT
ATOM      1  C   UNL     1     133.479 125.939 123.083  1.00  0.00    +0.097 C 
ENDROOT
BRANCH   1   2
ATOM      2  C   UNL     1     133.564 125.647 124.590  1.00  0.00    +0.267 C 
BRANCH   2   3
ATOM      3  N   UNL     1     132.378 124.908 125.177  1.00  0.00    -0.333 N 
ATOM      4  C   UNL     1     131.146 125.753 125.344  1.00  0.00    +0.333 C 
ATOM      5  H   UNL     1     132.125 124.213 124.463  1.00  0.00    +0.348 HD
BRANCH   3   6
ATOM      6  C   UNL     1     132.696 124.075 126.404  1.00  0.00    +0.298 C 
BRANCH   6   7
ATOM      7  C   UNL     1     133.793 123.075 126.146  1.00  0.00    +0.006 A 
ATOM      8  C   UNL     1     135.063 123.245 126.718  1.00  0.00    +0.009 A 
ATOM      9  C   UNL     1     133.551 121.945 125.349  1.00  0.00    +0.009 A 
ATOM     10  C   UNL     1     136.067 122.300 126.503  1.00  0.00    +0.001 A 
ATOM     11  C   UNL     1     134.559 121.003 125.136  1.00  0.00    +0.001 A 
ATOM     12  C   UNL     1     135.814 121.180 125.715  1.00  0.00    +0.000 A 
ENDBRANCH   6   7
ENDBRANCH   3   6
ENDBRANCH   2   3
ENDBRANCH   1   2
BRANCH   1  13
ATOM     13  C   UNL     1     134.285 125.025 122.195  1.00  0.00    -0.042 A 
ATOM     14  C   UNL     1     135.207 124.128 122.751  1.00  0.00    +0.004 A 
ATOM     15  C   UNL     1     134.149 125.078 120.797  1.00  0.00    +0.019 A 
ATOM     16  C   UNL     1     135.952 123.277 121.934  1.00  0.00    +0.001 A 
ATOM     17  C   UNL     1     134.894 124.222 119.970  1.00  0.00    +0.060 A 
ATOM     18  C   UNL     1     135.791 123.317 120.550  1.00  0.00    +0.016 A 
BRANCH  17  19
ATOM     19  C   UNL     1     134.770 124.234 118.486  1.00  0.00    +0.337 C 
ATOM     20  O   UNL     1     134.364 125.194 117.853  1.00  0.00    -0.246 OA
BRANCH  19  21
ATOM     21  O   UNL     1     135.191 123.054 117.965  1.00  0.00    -0.465 OA
ATOM     22  C   UNL     1     134.762 122.836 116.617  1.00  0.00    +0.282 C 
ENDBRANCH  19  21
ENDBRANCH  17  19
ENDBRANCH   1  13
TORSDOF 7
ENDMDL
MODEL 6
REMARK VINA RESULT:    -6.830      2.774      4.905
REMARK INTER + INTRA:         -12.131
REMARK INTER:                  -9.596
REMARK INTRA:                  -2.536
REMARK UNBOUND:                -2.506
REMARK SMILES COC(=O)c1cccc(CC[N@H+](C)Cc2ccccc2)c1
REMARK SMILES IDX 10 1 11 2 12 3 13 4 14 6 15 7 16 8 20 9 17 10 19 11 18 12
REMARK SMILES IDX 9 13 8 14 21 15 7 16 5 17 6 18 3 19 4 20 2 21 1 22
REMARK H PARENT 12 5
REMARK INDEX MAP 4 1 3 2 2 3 1 4 25 5 15 6 16 7 17 8 21 9 18 10 20 11 19 12
REMARK INDEX MAP 5 13 6 14 10 15 7 16 9 17 8 18 11 19 12 20 13 21 14 22
ROOT
ATOM      1  C   UNL     1     135.918 122.941 121.133  1.00  0.00    +0.097 C 
ENDROOT
BRANCH   1   2
ATOM      2  C   UNL     1     135.838 124.258 120.345  1.00  0.00    +0.267 C 
BRANCH   2   3
ATOM      3  N   UNL     1     134.445 124.675 119.916  1.00  0.00    -0.333 N 
ATOM      4  C   UNL     1     134.275 124.813 118.429  1.00  0.00    +0.333 C 
ATOM      5  H   UNL     1     133.844 123.884 120.176  1.00  0.00    +0.348 HD
BRANCH   3   6
ATOM      6  C   UNL     1     133.869 125.846 120.689  1.00  0.00    +0.298 C 
BRANCH   6   7
ATOM      7  C   UNL     1     133.301 125.426 122.020  1.00  0.00    +0.006 A 
ATOM      8  C   UNL     1     132.530 124.260 122.131  1.00  0.00    +0.009 A 
ATOM      9  C   UNL     1     133.558 126.185 123.173  1.00  0.00    +0.009 A 
ATOM     10  C   UNL     1     132.031 123.858 123.371  1.00  0.00    +0.001 A 
ATOM     11  C   UNL     1     133.058 125.778 124.411  1.00  0.00    +0.001 A 
ATOM     12  C   UNL     1     132.298 124.615 124.509  1.00  0.00    +0.000 A 
ENDBRANCH   6   7
ENDBRANCH   3   6
ENDBRANCH   2   3
ENDBRANCH   1   2
BRANCH   1  13
ATOM     13  C   UNL     1     135.891 123.076 122.635  1.00  0.00    -0.042 A 
ATOM     14  C   UNL     1     135.320 122.070 123.427  1.00  0.00    +0.004 A 
ATOM     15  C   UNL     1     136.407 124.223 123.263  1.00  0.00    +0.019 A 
ATOM     16  C   UNL     1     135.297 122.188 124.817  1.00  0.00    +0.001 A 
ATOM     17  C   UNL     1     136.390 124.345 124.662  1.00  0.00    +0.060 A 
ATOM     18  C   UNL     1     135.836 123.316 125.434  1.00  0.00    +0.016 A 
BRANCH  17  19
ATOM     19  C   UNL     1     136.939 125.535 125.369  1.00  0.00    +0.337 C 
ATOM     20  O   UNL     1     137.329 125.509 126.525  1.00  0.00    -0.246 OA
BRANCH  19  21
ATOM     21  O   UNL     1     136.959 126.611 124.543  1.00  0.00    -0.465 OA
ATOM     22  C   UNL     1     136.424 127.799 125.135  1.00  0.00    +0.282 C 
ENDBRANCH  19  21
ENDBRANCH  17  19
ENDBRANCH   1  13
TORSDOF 7
ENDMDL
MODEL 7
REMARK VINA RESULT:    -6.758      3.298      5.966
REMARK INTER + INTRA:         -12.029
REMARK INTER:                 -10.093
REMARK INTRA:                  -1.936
REMARK UNBOUND:                -2.506
REMARK SMILES COC(=O)c1cccc(CC[N@H+](C)Cc2ccccc2)c1
REMARK SMILES IDX 10 1 11 2 12 3 13 4 14 6 15 7 16 8 20 9 17 10 19 11 18 12
REMARK SMILES IDX 9 13 8 14 21 15 7 16 5 17 6 18 3 19 4 20 2 21 1 22
REMARK H PARENT 12 5
REMARK INDEX MAP 4 1 3 2 2 3 1 4 25 5 15 6 16 7 17 8 21 9 18 10 20 11 19 12
REMARK INDEX MAP 5 13 6 14 10 15 7 16 9 17 8 18 11 19 12 20 13 21 14 22
ROOT
ATOM      1  C   UNL     1     132.945 124.810 122.139  1.00  0.00    +0.097 C 
ENDROOT
BRANCH   1   2
ATOM      2  C   UNL     1     134.312 124.145 121.916  1.00  0.00    +0.267 C 
BRANCH   2   3
ATOM      3  N   UNL     1     135.452 124.709 122.741  1.00  0.00    -0.333 N 
ATOM      4  C   UNL     1     136.258 125.765 122.038  1.00  0.00    +0.333 C 
ATOM      5  H   UNL     1     134.993 125.204 123.516  1.00  0.00    +0.348 HD
BRANCH   3   6
ATOM      6  C   UNL     1     136.312 123.666 123.428  1.00  0.00    +0.298 C 
BRANCH   6   7
ATOM      7  C   UNL     1     135.596 123.001 124.575  1.00  0.00    +0.006 A 
ATOM      8  C   UNL     1     135.209 121.656 124.491  1.00  0.00    +0.009 A 
ATOM      9  C   UNL     1     135.330 123.714 125.755  1.00  0.00    +0.009 A 
ATOM     10  C   UNL     1     134.574 121.035 125.568  1.00  0.00    +0.001 A 
ATOM     11  C   UNL     1     134.695 123.089 126.829  1.00  0.00    +0.001 A 
ATOM     12  C   UNL     1     134.320 121.750 126.735  1.00  0.00    +0.000 A 
ENDBRANCH   6   7
ENDBRANCH   3   6
ENDBRANCH   2   3
ENDBRANCH   1   2
BRANCH   1  13
ATOM     13  C   UNL     1     132.567 125.059 123.578  1.00  0.00    -0.042 A 
ATOM     14  C   UNL     1     133.085 126.167 124.264  1.00  0.00    +0.004 A 
ATOM     15  C   UNL     1     131.720 124.172 124.264  1.00  0.00    +0.019 A 
ATOM     16  C   UNL     1     132.735 126.405 125.594  1.00  0.00    +0.001 A 
ATOM     17  C   UNL     1     131.362 124.409 125.601  1.00  0.00    +0.060 A 
ATOM     18  C   UNL     1     131.872 125.535 126.258  1.00  0.00    +0.016 A 
BRANCH  17  19
ATOM     19  C   UNL     1     130.455 123.504 126.360  1.00  0.00    +0.337 C 
ATOM     20  O   UNL     1     130.837 122.758 127.246  1.00  0.00    -0.246 OA
BRANCH  19  21
ATOM     21  O   UNL     1     129.173 123.655 125.940  1.00  0.00    -0.465 OA
ATOM     22  C   UNL     1     128.270 124.043 126.979  1.00  0.00    +0.282 C 
ENDBRANCH  19  21
ENDBRANCH  17  19
ENDBRANCH   1  13
TORSDOF 7
ENDMDL
MODEL 8
REMARK VINA RESULT:    -6.618      3.025      5.333
REMARK INTER + INTRA:         -11.832
REMARK INTER:                  -9.894
REMARK INTRA:                  -1.938
REMARK UNBOUND:                -2.506
REMARK SMILES COC(=O)c1cccc(CC[N@H+](C)Cc2ccccc2)c1
REMARK SMILES IDX 10 1 11 2 12 3 13 4 14 6 15 7 16 8 20 9 17 10 19 11 18 12
REMARK SMILES IDX 9 13 8 14 21 15 7 16 5 17 6 18 3 19 4 20 2 21 1 22
REMARK H PARENT 12 5
REMARK INDEX MAP 4 1 3 2 2 3 1 4 25 5 15 6 16 7 17 8 21 9 18 10 20 11 19 12
REMARK INDEX MAP 5 13 6 14 10 15 7 16 9 17 8 18 11 19 12 20 13 21 14 22
ROOT
ATOM      1  C   UNL     1     132.885 122.228 126.418  1.00  0.00    +0.097 C 
ENDROOT
BRANCH   1   2
ATOM      2  C   UNL     1     133.985 121.388 125.749  1.00  0.00    +0.267 C 
BRANCH   2   3
ATOM      3  N   UNL     1     135.324 121.385 126.460  1.00  0.00    -0.333 N 
ATOM      4  C   UNL     1     135.316 122.087 127.789  1.00  0.00    +0.333 C 
ATOM      5  H   UNL     1     135.497 120.398 126.686  1.00  0.00    +0.348 HD
BRANCH   3   6
ATOM      6  C   UNL     1     136.503 121.776 125.590  1.00  0.00    +0.298 C 
BRANCH   6   7
ATOM      7  C   UNL     1     136.174 122.913 124.659  1.00  0.00    +0.006 A 
ATOM      8  C   UNL     1     136.142 124.234 125.130  1.00  0.00    +0.009 A 
ATOM      9  C   UNL     1     135.920 122.668 123.301  1.00  0.00    +0.009 A 
ATOM     10  C   UNL     1     135.868 125.288 124.258  1.00  0.00    +0.001 A 
ATOM     11  C   UNL     1     135.647 123.726 122.432  1.00  0.00    +0.001 A 
ATOM     12  C   UNL     1     135.623 125.034 122.911  1.00  0.00    +0.000 A 
ENDBRANCH   6   7
ENDBRANCH   3   6
ENDBRANCH   2   3
ENDBRANCH   1   2
BRANCH   1  13
ATOM     13  C   UNL     1     132.509 123.501 125.701  1.00  0.00    -0.042 A 
ATOM     14  C   UNL     1     132.441 123.533 124.301  1.00  0.00    +0.004 A 
ATOM     15  C   UNL     1     132.254 124.682 126.420  1.00  0.00    +0.019 A 
ATOM     16  C   UNL     1     132.090 124.707 123.634  1.00  0.00    +0.001 A 
ATOM     17  C   UNL     1     131.896 125.865 125.754  1.00  0.00    +0.060 A 
ATOM     18  C   UNL     1     131.811 125.866 124.356  1.00  0.00    +0.016 A 
BRANCH  17  19
ATOM     19  C   UNL     1     131.602 127.134 126.476  1.00  0.00    +0.337 C 
ATOM     20  O   UNL     1     132.430 128.011 126.657  1.00  0.00    -0.246 OA
BRANCH  19  21
ATOM     21  O   UNL     1     130.303 127.168 126.866  1.00  0.00    -0.465 OA
ATOM     22  C   UNL     1     129.571 128.273 126.329  1.00  0.00    +0.282 C 
ENDBRANCH  19  21
ENDBRANCH  17  19
ENDBRANCH   1  13
TORSDOF 7
ENDMDL
MODEL 9
REMARK VINA RESULT:    -6.559      3.314      6.087
REMARK INTER + INTRA:         -11.749
REMARK INTER:                 -10.727
REMARK INTRA:                  -1.022
REMARK UNBOUND:                -2.506
REMARK SMILES COC(=O)c1cccc(CC[N@H+](C)Cc2ccccc2)c1
REMARK SMILES IDX 10 1 11 2 12 3 13 4 14 6 15 7 16 8 20 9 17 10 19 11 18 12
REMARK SMILES IDX 9 13 8 14 21 15 7 16 5 17 6 18 3 19 4 20 2 21 1 22
REMARK H PARENT 12 5
REMARK INDEX MAP 4 1 3 2 2 3 1 4 25 5 15 6 16 7 17 8 21 9 18 10 20 11 19 12
REMARK INDEX MAP 5 13 6 14 10 15 7 16 9 17 8 18 11 19 12 20 13 21 14 22
ROOT
ATOM      1  C   UNL     1     132.726 124.731 123.274  1.00  0.00    +0.097 C 
ENDROOT
BRANCH   1   2
ATOM      2  C   UNL     1     133.973 125.272 122.558  1.00  0.00    +0.267 C 
BRANCH   2   3
ATOM      3  N   UNL     1     135.226 125.356 123.407  1.00  0.00    -0.333 N 
ATOM      4  C   UNL     1     136.079 126.561 123.128  1.00  0.00    +0.333 C 
ATOM      5  H   UNL     1     134.883 125.494 124.365  1.00  0.00    +0.348 HD
BRANCH   3   6
ATOM      6  C   UNL     1     136.025 124.069 123.484  1.00  0.00    +0.298 C 
BRANCH   6   7
ATOM      7  C   UNL     1     135.602 123.203 124.642  1.00  0.00    +0.006 A 
ATOM      8  C   UNL     1     135.408 121.825 124.469  1.00  0.00    +0.009 A 
ATOM      9  C   UNL     1     135.421 123.761 125.917  1.00  0.00    +0.009 A 
ATOM     10  C   UNL     1     135.046 121.021 125.551  1.00  0.00    +0.001 A 
ATOM     11  C   UNL     1     135.059 122.953 126.996  1.00  0.00    +0.001 A 
ATOM     12  C   UNL     1     134.875 121.585 126.813  1.00  0.00    +0.000 A 
ENDBRANCH   6   7
ENDBRANCH   3   6
ENDBRANCH   2   3
ENDBRANCH   1   2
BRANCH   1  13
ATOM     13  C   UNL     1     132.051 125.690 124.224  1.00  0.00    -0.042 A 
ATOM     14  C   UNL     1     132.330 125.642 125.597  1.00  0.00    +0.004 A 
ATOM     15  C   UNL     1     131.110 126.622 123.755  1.00  0.00    +0.019 A 
ATOM     16  C   UNL     1     131.712 126.529 126.478  1.00  0.00    +0.001 A 
ATOM     17  C   UNL     1     130.487 127.520 124.637  1.00  0.00    +0.060 A 
ATOM     18  C   UNL     1     130.800 127.470 126.001  1.00  0.00    +0.016 A 
BRANCH  17  19
ATOM     19  C   UNL     1     129.496 128.534 124.182  1.00  0.00    +0.337 C 
ATOM     20  O   UNL     1     129.795 129.678 123.881  1.00  0.00    -0.246 OA
BRANCH  19  21
ATOM     21  O   UNL     1     128.253 127.994 124.133  1.00  0.00    -0.465 OA
ATOM     22  C   UNL     1     127.740 127.855 122.804  1.00  0.00    +0.282 C 
ENDBRANCH  19  21
ENDBRANCH  17  19
ENDBRANCH   1  13
TORSDOF 7
ENDMDL
MODEL 10
REMARK VINA RESULT:    -6.393      3.567      6.397
REMARK INTER + INTRA:         -11.515
REMARK INTER:                 -10.885
REMARK INTRA:                  -0.630
REMARK UNBOUND:                -2.506
REMARK SMILES COC(=O)c1cccc(CC[N@H+](C)Cc2ccccc2)c1
REMARK SMILES IDX 10 1 11 2 12 3 13 4 14 6 15 7 16 8 20 9 17 10 19 11 18 12
REMARK SMILES IDX 9 13 8 14 21 15 7 16 5 17 6 18 3 19 4 20 2 21 1 22
REMARK H PARENT 12 5
REMARK INDEX MAP 4 1 3 2 2 3 1 4 25 5 15 6 16 7 17 8 21 9 18 10 20 11 19 12
REMARK INDEX MAP 5 13 6 14 10 15 7 16 9 17 8 18 11 19 12 20 13 21 14 22
ROOT
ATOM      1  C   UNL     1     133.721 123.959 125.915  1.00  0.00    +0.097 C 
ENDROOT
BRANCH   1   2
ATOM      2  C   UNL     1     133.750 122.974 124.737  1.00  0.00    +0.267 C 
BRANCH   2   3
ATOM      3  N   UNL     1     135.118 122.713 124.139  1.00  0.00    -0.333 N 
ATOM      4  C   UNL     1     136.005 121.847 124.988  1.00  0.00    +0.333 C 
ATOM      5  H   UNL     1     134.933 122.154 123.298  1.00  0.00    +0.348 HD
BRANCH   3   6
ATOM      6  C   UNL     1     135.824 123.948 123.612  1.00  0.00    +0.298 C 
BRANCH   6   7
ATOM      7  C   UNL     1     135.397 124.294 122.209  1.00  0.00    +0.006 A 
ATOM      8  C   UNL     1     135.752 123.469 121.132  1.00  0.00    +0.009 A 
ATOM      9  C   UNL     1     134.617 125.435 121.965  1.00  0.00    +0.009 A 
ATOM     10  C   UNL     1     135.329 123.776 119.838  1.00  0.00    +0.001 A 
ATOM     11  C   UNL     1     134.196 125.737 120.669  1.00  0.00    +0.001 A 
ATOM     12  C   UNL     1     134.550 124.907 119.608  1.00  0.00    +0.000 A 
ENDBRANCH   6   7
ENDBRANCH   3   6
ENDBRANCH   2   3
ENDBRANCH   1   2
BRANCH   1  13
ATOM     13  C   UNL     1     132.350 124.393 126.371  1.00  0.00    -0.042 A 
ATOM     14  C   UNL     1     131.386 123.438 126.724  1.00  0.00    +0.004 A 
ATOM     15  C   UNL     1     132.005 125.754 126.418  1.00  0.00    +0.019 A 
ATOM     16  C   UNL     1     130.118 123.833 127.150  1.00  0.00    +0.001 A 
ATOM     17  C   UNL     1     130.732 126.158 126.850  1.00  0.00    +0.060 A 
ATOM     18  C   UNL     1     129.793 125.188 127.221  1.00  0.00    +0.016 A 
BRANCH  17  19
ATOM     19  C   UNL     1     130.329 127.590 126.931  1.00  0.00    +0.337 C 
ATOM     20  O   UNL     1     130.134 128.289 125.951  1.00  0.00    -0.246 OA
BRANCH  19  21
ATOM     21  O   UNL     1     130.195 127.973 128.225  1.00  0.00    -0.465 OA
ATOM     22  C   UNL     1     131.379 128.558 128.776  1.00  0.00    +0.282 C 
ENDBRANCH  19  21
ENDBRANCH  17  19
ENDBRANCH   1  13
TORSDOF 7
ENDMDL
MODEL 11
REMARK VINA RESULT:    -6.377      3.006      5.273
REMARK INTER + INTRA:         -11.492
REMARK INTER:                  -9.263
REMARK INTRA:                  -2.229
REMARK UNBOUND:                -2.506
REMARK SMILES COC(=O)c1cccc(CC[N@H+](C)Cc2ccccc2)c1
REMARK SMILES IDX 10 1 11 2 12 3 13 4 14 6 15 7 16 8 20 9 17 10 19 11 18 12
REMARK SMILES IDX 9 13 8 14 21 15 7 16 5 17 6 18 3 19 4 20 2 21 1 22
REMARK H PARENT 12 5
REMARK INDEX MAP 4 1 3 2 2 3 1 4 25 5 15 6 16 7 17 8 21 9 18 10 20 11 19 12
REMARK INDEX MAP 5 13 6 14 10 15 7 16 9 17 8 18 11 19 12 20 13 21 14 22
ROOT
ATOM      1  C   UNL     1     135.075 122.546 121.373  1.00  0.00    +0.097 C 
ENDROOT
BRANCH   1   2
ATOM      2  C   UNL     1     135.661 123.648 120.476  1.00  0.00    +0.267 C 
BRANCH   2   3
ATOM      3  N   UNL     1     134.644 124.511 119.757  1.00  0.00    -0.333 N 
ATOM      4  C   UNL     1     134.588 124.289 118.271  1.00  0.00    +0.333 C 
ATOM      5  H   UNL     1     133.733 124.186 120.104  1.00  0.00    +0.348 HD
BRANCH   3   6
ATOM      6  C   UNL     1     134.679 125.979 120.136  1.00  0.00    +0.298 C 
BRANCH   6   7
ATOM      7  C   UNL     1     134.632 126.185 121.627  1.00  0.00    +0.006 A 
ATOM      8  C   UNL     1     133.425 126.050 122.329  1.00  0.00    +0.009 A 
ATOM      9  C   UNL     1     135.803 126.490 122.339  1.00  0.00    +0.009 A 
ATOM     10  C   UNL     1     133.392 126.211 123.715  1.00  0.00    +0.001 A 
ATOM     11  C   UNL     1     135.765 126.649 123.725  1.00  0.00    +0.001 A 
ATOM     12  C   UNL     1     134.561 126.507 124.411  1.00  0.00    +0.000 A 
ENDBRANCH   6   7
ENDBRANCH   3   6
ENDBRANCH   2   3
ENDBRANCH   1   2
BRANCH   1  13
ATOM     13  C   UNL     1     135.193 122.782 122.858  1.00  0.00    -0.042 A 
ATOM     14  C   UNL     1     136.453 122.932 123.454  1.00  0.00    +0.004 A 
ATOM     15  C   UNL     1     134.048 122.822 123.672  1.00  0.00    +0.019 A 
ATOM     16  C   UNL     1     136.567 123.154 124.826  1.00  0.00    +0.001 A 
ATOM     17  C   UNL     1     134.157 123.048 125.054  1.00  0.00    +0.060 A 
ATOM     18  C   UNL     1     135.424 123.220 125.623  1.00  0.00    +0.016 A 
BRANCH  17  19
ATOM     19  C   UNL     1     132.970 123.114 125.951  1.00  0.00    +0.337 C 
ATOM     20  O   UNL     1     132.672 124.103 126.600  1.00  0.00    -0.246 OA
BRANCH  19  21
ATOM     21  O   UNL     1     132.282 121.946 125.915  1.00  0.00    -0.465 OA
ATOM     22  C   UNL     1     132.870 120.909 126.706  1.00  0.00    +0.282 C 
ENDBRANCH  19  21
ENDBRANCH  17  19
ENDBRANCH   1  13
TORSDOF 7
ENDMDL
MODEL 12
REMARK VINA RESULT:    -6.242      2.328      4.037
REMARK INTER + INTRA:         -11.303
REMARK INTER:                 -11.386
REMARK INTRA:                   0.084
REMARK UNBOUND:                -2.506
REMARK SMILES COC(=O)c1cccc(CC[N@H+](C)Cc2ccccc2)c1
REMARK SMILES IDX 10 1 11 2 12 3 13 4 14 6 15 7 16 8 20 9 17 10 19 11 18 12
REMARK SMILES IDX 9 13 8 14 21 15 7 16 5 17 6 18 3 19 4 20 2 21 1 22
REMARK H PARENT 12 5
REMARK INDEX MAP 4 1 3 2 2 3 1 4 25 5 15 6 16 7 17 8 21 9 18 10 20 11 19 12
REMARK INDEX MAP 5 13 6 14 10 15 7 16 9 17 8 18 11 19 12 20 13 21 14 22
ROOT
ATOM      1  C   UNL     1     135.765 123.490 121.918  1.00  0.00    +0.097 C 
ENDROOT
BRANCH   1   2
ATOM      2  C   UNL     1     136.450 124.594 122.739  1.00  0.00    +0.267 C 
BRANCH   2   3
ATOM      3  N   UNL     1     135.685 125.066 123.959  1.00  0.00    -0.333 N 
ATOM      4  C   UNL     1     135.617 126.561 124.102  1.00  0.00    +0.333 C 
ATOM      5  H   UNL     1     134.715 124.775 123.787  1.00  0.00    +0.348 HD
BRANCH   3   6
ATOM      6  C   UNL     1     136.057 124.363 125.250  1.00  0.00    +0.298 C 
BRANCH   6   7
ATOM      7  C   UNL     1     135.134 123.213 125.560  1.00  0.00    +0.006 A 
ATOM      8  C   UNL     1     133.906 123.436 126.200  1.00  0.00    +0.009 A 
ATOM      9  C   UNL     1     135.481 121.904 125.190  1.00  0.00    +0.009 A 
ATOM     10  C   UNL     1     133.040 122.372 126.457  1.00  0.00    +0.001 A 
ATOM     11  C   UNL     1     134.612 120.844 125.450  1.00  0.00    +0.001 A 
ATOM     12  C   UNL     1     133.392 121.079 126.080  1.00  0.00    +0.000 A 
ENDBRANCH   6   7
ENDBRANCH   3   6
ENDBRANCH   2   3
ENDBRANCH   1   2
BRANCH   1  13
ATOM     13  C   UNL     1     135.287 123.897 120.546  1.00  0.00    -0.042 A 
ATOM     14  C   UNL     1     134.782 125.186 120.326  1.00  0.00    +0.004 A 
ATOM     15  C   UNL     1     135.309 122.985 119.477  1.00  0.00    +0.019 A 
ATOM     16  C   UNL     1     134.342 125.569 119.059  1.00  0.00    +0.001 A 
ATOM     17  C   UNL     1     134.872 123.366 118.199  1.00  0.00    +0.060 A 
ATOM     18  C   UNL     1     134.393 124.667 117.997  1.00  0.00    +0.016 A 
BRANCH  17  19
ATOM     19  C   UNL     1     134.892 122.438 117.035  1.00  0.00    +0.337 C 
ATOM     20  O   UNL     1     135.318 122.749 115.934  1.00  0.00    -0.246 OA
BRANCH  19  21
ATOM     21  O   UNL     1     134.401 121.223 117.387  1.00  0.00    -0.465 OA
ATOM     22  C   UNL     1     135.303 120.448 118.183  1.00  0.00    +0.282 C 
ENDBRANCH  19  21
ENDBRANCH  17  19
ENDBRANCH   1  13
TORSDOF 7
ENDMDL
MODEL 13
REMARK VINA RESULT:    -6.114      3.615      6.639
REMARK INTER + INTRA:         -11.122
REMARK INTER:                 -10.664
REMARK INTRA:                  -0.458
REMARK UNBOUND:                -2.506
REMARK SMILES COC(=O)c1cccc(CC[N@H+](C)Cc2ccccc2)c1
REMARK SMILES IDX 10 1 11 2 12 3 13 4 14 6 15 7 16 8 20 9 17 10 19 11 18 12
REMARK SMILES IDX 9 13 8 14 21 15 7 16 5 17 6 18 3 19 4 20 2 21 1 22
REMARK H PARENT 12 5
REMARK INDEX MAP 4 1 3 2 2 3 1 4 25 5 15 6 16 7 17 8 21 9 18 10 20 11 19 12
REMARK INDEX MAP 5 13 6 14 10 15 7 16 9 17 8 18 11 19 12 20 13 21 14 22
ROOT
ATOM      1  C   UNL     1     133.909 125.791 124.963  1.00  0.00    +0.097 C 
ENDROOT
BRANCH   1   2
ATOM      2  C   UNL     1     134.002 125.765 123.430  1.00  0.00    +0.267 C 
BRANCH   2   3
ATOM      3  N   UNL     1     135.279 125.173 122.866  1.00  0.00    -0.333 N 
ATOM      4  C   UNL     1     136.401 125.072 123.859  1.00  0.00    +0.333 C 
ATOM      5  H   UNL     1     135.038 124.200 122.642  1.00  0.00    +0.348 HD
BRANCH   3   6
ATOM      6  C   UNL     1     135.714 125.760 121.536  1.00  0.00    +0.298 C 
BRANCH   6   7
ATOM      7  C   UNL     1     135.356 124.869 120.375  1.00  0.00    +0.006 A 
ATOM      8  C   UNL     1     134.587 125.360 119.310  1.00  0.00    +0.009 A 
ATOM      9  C   UNL     1     135.810 123.542 120.332  1.00  0.00    +0.009 A 
ATOM     10  C   UNL     1     134.284 124.541 118.221  1.00  0.00    +0.001 A 
ATOM     11  C   UNL     1     135.505 122.727 119.241  1.00  0.00    +0.001 A 
ATOM     12  C   UNL     1     134.744 123.228 118.186  1.00  0.00    +0.000 A 
ENDBRANCH   6   7
ENDBRANCH   3   6
ENDBRANCH   2   3
ENDBRANCH   1   2
BRANCH   1  13
ATOM     13  C   UNL     1     133.091 124.687 125.587  1.00  0.00    -0.042 A 
ATOM     14  C   UNL     1     133.563 123.367 125.582  1.00  0.00    +0.004 A 
ATOM     15  C   UNL     1     131.833 124.956 126.153  1.00  0.00    +0.019 A 
ATOM     16  C   UNL     1     132.813 122.343 126.161  1.00  0.00    +0.001 A 
ATOM     17  C   UNL     1     131.076 123.930 126.740  1.00  0.00    +0.060 A 
ATOM     18  C   UNL     1     131.578 122.623 126.745  1.00  0.00    +0.016 A 
BRANCH  17  19
ATOM     19  C   UNL     1     129.746 124.172 127.365  1.00  0.00    +0.337 C 
ATOM     20  O   UNL     1     129.098 123.304 127.925  1.00  0.00    -0.246 OA
BRANCH  19  21
ATOM     21  O   UNL     1     129.392 125.476 127.237  1.00  0.00    -0.465 OA
ATOM     22  C   UNL     1     128.438 125.712 126.197  1.00  0.00    +0.282 C 
ENDBRANCH  19  21
ENDBRANCH  17  19
ENDBRANCH   1  13
TORSDOF 7
ENDMDL
MODEL 14
REMARK VINA RESULT:    -6.106      3.894      7.075
REMARK INTER + INTRA:         -11.110
REMARK INTER:                 -10.605
REMARK INTRA:                  -0.505
REMARK UNBOUND:                -2.506
REMARK SMILES COC(=O)c1cccc(CC[N@H+](C)Cc2ccccc2)c1
REMARK SMILES IDX 10 1 11 2 12 3 13 4 14 6 15 7 16 8 20 9 17 10 19 11 18 12
REMARK SMILES IDX 9 13 8 14 21 15 7 16 5 17 6 18 3 19 4 20 2 21 1 22
REMARK H PARENT 12 5
REMARK INDEX MAP 4 1 3 2 2 3 1 4 25 5 15 6 16 7 17 8 21 9 18 10 20 11 19 12
REMARK INDEX MAP 5 13 6 14 10 15 7 16 9 17 8 18 11 19 12 20 13 21 14 22
ROOT
ATOM      1  C   UNL     1     133.237 125.711 124.362  1.00  0.00    +0.097 C 
ENDROOT
BRANCH   1   2
ATOM      2  C   UNL     1     133.226 124.790 123.133  1.00  0.00    +0.267 C 
BRANCH   2   3
ATOM      3  N   UNL     1     134.545 124.114 122.816  1.00  0.00    -0.333 N 
ATOM      4  C   UNL     1     135.318 123.673 124.027  1.00  0.00    +0.333 C 
ATOM      5  H   UNL     1     134.284 123.241 122.340  1.00  0.00    +0.348 HD
BRANCH   3   6
ATOM      6  C   UNL     1     135.402 124.844 121.799  1.00  0.00    +0.298 C 
BRANCH   6   7
ATOM      7  C   UNL     1     135.147 124.369 120.392  1.00  0.00    +0.006 A 
ATOM      8  C   UNL     1     135.576 123.099 119.978  1.00  0.00    +0.009 A 
ATOM      9  C   UNL     1     134.453 125.183 119.482  1.00  0.00    +0.009 A 
ATOM     10  C   UNL     1     135.310 122.651 118.683  1.00  0.00    +0.001 A 
ATOM     11  C   UNL     1     134.190 124.730 118.189  1.00  0.00    +0.001 A 
ATOM     12  C   UNL     1     134.616 123.465 117.792  1.00  0.00    +0.000 A 
ENDBRANCH   6   7
ENDBRANCH   3   6
ENDBRANCH   2   3
ENDBRANCH   1   2
BRANCH   1  13
ATOM     13  C   UNL     1     132.172 125.436 125.394  1.00  0.00    -0.042 A 
ATOM     14  C   UNL     1     131.622 124.152 125.520  1.00  0.00    +0.004 A 
ATOM     15  C   UNL     1     131.690 126.464 126.223  1.00  0.00    +0.019 A 
ATOM     16  C   UNL     1     130.640 123.891 126.475  1.00  0.00    +0.001 A 
ATOM     17  C   UNL     1     130.704 126.206 127.189  1.00  0.00    +0.060 A 
ATOM     18  C   UNL     1     130.187 124.910 127.312  1.00  0.00    +0.016 A 
BRANCH  17  19
ATOM     19  C   UNL     1     130.177 127.261 128.098  1.00  0.00    +0.337 C 
ATOM     20  O   UNL     1     129.292 127.064 128.914  1.00  0.00    -0.246 OA
BRANCH  19  21
ATOM     21  O   UNL     1     130.833 128.431 127.897  1.00  0.00    -0.465 OA
ATOM     22  C   UNL     1     131.649 128.829 129.003  1.00  0.00    +0.282 C 
ENDBRANCH  19  21
ENDBRANCH  17  19
ENDBRANCH   1  13
TORSDOF 7
ENDMDL
MODEL 15
REMARK VINA RESULT:    -6.038      2.541      3.306
REMARK INTER + INTRA:         -11.015
REMARK INTER:                 -10.351
REMARK INTRA:                  -0.665
REMARK UNBOUND:                -2.506
REMARK SMILES COC(=O)c1cccc(CC[N@H+](C)Cc2ccccc2)c1
REMARK SMILES IDX 10 1 11 2 12 3 13 4 14 6 15 7 16 8 20 9 17 10 19 11 18 12
REMARK SMILES IDX 9 13 8 14 21 15 7 16 5 17 6 18 3 19 4 20 2 21 1 22
REMARK H PARENT 12 5
REMARK INDEX MAP 4 1 3 2 2 3 1 4 25 5 15 6 16 7 17 8 21 9 18 10 20 11 19 12
REMARK INDEX MAP 5 13 6 14 10 15 7 16 9 17 8 18 11 19 12 20 13 21 14 22
ROOT
ATOM      1  C   UNL     1     133.665 125.068 124.975  1.00  0.00    +0.097 C 
ENDROOT
BRANCH   1   2
ATOM      2  C   UNL     1     133.594 124.274 126.289  1.00  0.00    +0.267 C 
BRANCH   2   3
ATOM      3  N   UNL     1     132.373 123.392 126.452  1.00  0.00    -0.333 N 
ATOM      4  C   UNL     1     132.603 121.950 126.099  1.00  0.00    +0.333 C 
ATOM      5  H   UNL     1     132.186 123.388 127.462  1.00  0.00    +0.348 HD
BRANCH   3   6
ATOM      6  C   UNL     1     131.101 123.955 125.846  1.00  0.00    +0.298 C 
BRANCH   6   7
ATOM      7  C   UNL     1     130.243 124.655 126.868  1.00  0.00    +0.006 A 
ATOM      8  C   UNL     1     130.480 125.997 127.199  1.00  0.00    +0.009 A 
ATOM      9  C   UNL     1     129.178 123.979 127.484  1.00  0.00    +0.009 A 
ATOM     10  C   UNL     1     129.664 126.651 128.123  1.00  0.00    +0.001 A 
ATOM     11  C   UNL     1     128.364 124.638 128.407  1.00  0.00    +0.001 A 
ATOM     12  C   UNL     1     128.606 125.973 128.723  1.00  0.00    +0.000 A 
ENDBRANCH   6   7
ENDBRANCH   3   6
ENDBRANCH   2   3
ENDBRANCH   1   2
BRANCH   1  13
ATOM     13  C   UNL     1     134.496 124.447 123.880  1.00  0.00    -0.042 A 
ATOM     14  C   UNL     1     135.486 123.503 124.191  1.00  0.00    +0.004 A 
ATOM     15  C   UNL     1     134.316 124.824 122.538  1.00  0.00    +0.019 A 
ATOM     16  C   UNL     1     136.254 122.923 123.182  1.00  0.00    +0.001 A 
ATOM     17  C   UNL     1     135.084 124.240 121.519  1.00  0.00    +0.060 A 
ATOM     18  C   UNL     1     136.051 123.283 121.850  1.00  0.00    +0.016 A 
BRANCH  17  19
ATOM     19  C   UNL     1     134.917 124.599 120.083  1.00  0.00    +0.337 C 
ATOM     20  O   UNL     1     134.382 125.629 119.706  1.00  0.00    -0.246 OA
BRANCH  19  21
ATOM     21  O   UNL     1     135.457 123.642 119.288  1.00  0.00    -0.465 OA
ATOM     22  C   UNL     1     134.918 123.625 117.963  1.00  0.00    +0.282 C 
ENDBRANCH  19  21
ENDBRANCH  17  19
ENDBRANCH   1  13
TORSDOF 7
ENDMDL
MODEL 16
REMARK VINA RESULT:    -5.995      2.670      3.717
REMARK INTER + INTRA:         -10.955
REMARK INTER:                 -10.430
REMARK INTRA:                  -0.525
REMARK UNBOUND:                -2.506
REMARK SMILES COC(=O)c1cccc(CC[N@H+](C)Cc2ccccc2)c1
REMARK SMILES IDX 10 1 11 2 12 3 13 4 14 6 15 7 16 8 20 9 17 10 19 11 18 12
REMARK SMILES IDX 9 13 8 14 21 15 7 16 5 17 6 18 3 19 4 20 2 21 1 22
REMARK H PARENT 12 5
REMARK INDEX MAP 4 1 3 2 2 3 1 4 25 5 15 6 16 7 17 8 21 9 18 10 20 11 19 12
REMARK INDEX MAP 5 13 6 14 10 15 7 16 9 17 8 18 11 19 12 20 13 21 14 22
ROOT
ATOM      1  C   UNL     1     133.985 124.041 124.271  1.00  0.00    +0.097 C 
ENDROOT
BRANCH   1   2
ATOM      2  C   UNL     1     132.486 123.806 124.031  1.00  0.00    +0.267 C 
BRANCH   2   3
ATOM      3  N   UNL     1     131.556 124.794 124.707  1.00  0.00    -0.333 N 
ATOM      4  C   UNL     1     131.379 126.084 123.956  1.00  0.00    +0.333 C 
ATOM      5  H   UNL     1     130.632 124.345 124.678  1.00  0.00    +0.348 HD
BRANCH   3   6
ATOM      6  C   UNL     1     131.819 125.000 126.186  1.00  0.00    +0.298 C 
BRANCH   6   7
ATOM      7  C   UNL     1     130.546 125.057 126.990  1.00  0.00    +0.006 A 
ATOM      8  C   UNL     1     129.792 123.896 127.216  1.00  0.00    +0.009 A 
ATOM      9  C   UNL     1     130.109 126.270 127.544  1.00  0.00    +0.009 A 
ATOM     10  C   UNL     1     128.630 123.947 127.987  1.00  0.00    +0.001 A 
ATOM     11  C   UNL     1     128.946 126.316 128.315  1.00  0.00    +0.001 A 
ATOM     12  C   UNL     1     128.210 125.155 128.537  1.00  0.00    +0.000 A 
ENDBRANCH   6   7
ENDBRANCH   3   6
ENDBRANCH   2   3
ENDBRANCH   1   2
BRANCH   1  13
ATOM     13  C   UNL     1     134.788 124.435 123.056  1.00  0.00    -0.042 A 
ATOM     14  C   UNL     1     135.607 125.572 123.086  1.00  0.00    +0.004 A 
ATOM     15  C   UNL     1     134.703 123.691 121.867  1.00  0.00    +0.019 A 
ATOM     16  C   UNL     1     136.354 125.938 121.967  1.00  0.00    +0.001 A 
ATOM     17  C   UNL     1     135.456 124.053 120.738  1.00  0.00    +0.060 A 
ATOM     18  C   UNL     1     136.286 125.179 120.799  1.00  0.00    +0.016 A 
BRANCH  17  19
ATOM     19  C   UNL     1     135.409 123.284 119.463  1.00  0.00    +0.337 C 
ATOM     20  O   UNL     1     135.415 122.066 119.413  1.00  0.00    -0.246 OA
BRANCH  19  21
ATOM     21  O   UNL     1     135.335 124.127 118.403  1.00  0.00    -0.465 OA
ATOM     22  C   UNL     1     134.029 124.210 117.825  1.00  0.00    +0.282 C 
ENDBRANCH  19  21
ENDBRANCH  17  19
ENDBRANCH   1  13
TORSDOF 7
ENDMDL
MODEL 17
REMARK VINA RESULT:    -5.983      3.317      6.167
REMARK INTER + INTRA:         -10.938
REMARK INTER:                 -10.451
REMARK INTRA:                  -0.487
REMARK UNBOUND:                -2.506
REMARK SMILES COC(=O)c1cccc(CC[N@H+](C)Cc2ccccc2)c1
REMARK SMILES IDX 10 1 11 2 12 3 13 4 14 6 15 7 16 8 20 9 17 10 19 11 18 12
REMARK SMILES IDX 9 13 8 14 21 15 7 16 5 17 6 18 3 19 4 20 2 21 1 22
REMARK H PARENT 12 5
REMARK INDEX MAP 4 1 3 2 2 3 1 4 25 5 15 6 16 7 17 8 21 9 18 10 20 11 19 12
REMARK INDEX MAP 5 13 6 14 10 15 7 16 9 17 8 18 11 19 12 20 13 21 14 22
ROOT
ATOM      1  C   UNL     1     132.679 124.962 124.671  1.00  0.00    +0.097 C 
ENDROOT
BRANCH   1   2
ATOM      2  C   UNL     1     134.103 125.380 124.271  1.00  0.00    +0.267 C 
BRANCH   2   3
ATOM      3  N   UNL     1     134.975 124.271 123.716  1.00  0.00    -0.333 N 
ATOM      4  C   UNL     1     135.538 123.349 124.760  1.00  0.00    +0.333 C 
ATOM      5  H   UNL     1     134.334 123.685 123.167  1.00  0.00    +0.348 HD
BRANCH   3   6
ATOM      6  C   UNL     1     136.011 124.726 122.706  1.00  0.00    +0.298 C 
BRANCH   6   7
ATOM      7  C   UNL     1     135.568 124.488 121.286  1.00  0.00    +0.006 A 
ATOM      8  C   UNL     1     134.892 125.487 120.572  1.00  0.00    +0.009 A 
ATOM      9  C   UNL     1     135.850 123.268 120.650  1.00  0.00    +0.009 A 
ATOM     10  C   UNL     1     134.511 125.274 119.247  1.00  0.00    +0.001 A 
ATOM     11  C   UNL     1     135.467 123.060 119.324  1.00  0.00    +0.001 A 
ATOM     12  C   UNL     1     134.801 124.063 118.624  1.00  0.00    +0.000 A 
ENDBRANCH   6   7
ENDBRANCH   3   6
ENDBRANCH   2   3
ENDBRANCH   1   2
BRANCH   1  13
ATOM     13  C   UNL     1     131.782 126.076 125.150  1.00  0.00    -0.042 A 
ATOM     14  C   UNL     1     131.710 126.389 126.515  1.00  0.00    +0.004 A 
ATOM     15  C   UNL     1     130.981 126.794 124.246  1.00  0.00    +0.019 A 
ATOM     16  C   UNL     1     130.885 127.421 126.963  1.00  0.00    +0.001 A 
ATOM     17  C   UNL     1     130.152 127.836 124.691  1.00  0.00    +0.060 A 
ATOM     18  C   UNL     1     130.115 128.147 126.056  1.00  0.00    +0.016 A 
BRANCH  17  19
ATOM     19  C   UNL     1     129.299 128.632 123.766  1.00  0.00    +0.337 C 
ATOM     20  O   UNL     1     129.299 129.852 123.735  1.00  0.00    -0.246 OA
BRANCH  19  21
ATOM     21  O   UNL     1     128.564 127.813 122.973  1.00  0.00    -0.465 OA
ATOM     22  C   UNL     1     127.334 128.394 122.530  1.00  0.00    +0.282 C 
ENDBRANCH  19  21
ENDBRANCH  17  19
ENDBRANCH   1  13
TORSDOF 7
ENDMDL
MODEL 18
REMARK VINA RESULT:    -5.944      4.169      7.123
REMARK INTER + INTRA:         -10.883
REMARK INTER:                 -10.309
REMARK INTRA:                  -0.574
REMARK UNBOUND:                -2.506
REMARK SMILES COC(=O)c1cccc(CC[N@H+](C)Cc2ccccc2)c1
REMARK SMILES IDX 10 1 11 2 12 3 13 4 14 6 15 7 16 8 20 9 17 10 19 11 18 12
REMARK SMILES IDX 9 13 8 14 21 15 7 16 5 17 6 18 3 19 4 20 2 21 1 22
REMARK H PARENT 12 5
REMARK INDEX MAP 4 1 3 2 2 3 1 4 25 5 15 6 16 7 17 8 21 9 18 10 20 11 19 12
REMARK INDEX MAP 5 13 6 14 10 15 7 16 9 17 8 18 11 19 12 20 13 21 14 22
ROOT
ATOM      1  C   UNL     1     132.491 125.972 124.235  1.00  0.00    +0.097 C 
ENDROOT
BRANCH   1   2
ATOM      2  C   UNL     1     133.753 125.116 124.425  1.00  0.00    +0.267 C 
BRANCH   2   3
ATOM      3  N   UNL     1     135.014 125.665 123.788  1.00  0.00    -0.333 N 
ATOM      4  C   UNL     1     135.881 126.459 124.725  1.00  0.00    +0.333 C 
ATOM      5  H   UNL     1     135.572 124.835 123.555  1.00  0.00    +0.348 HD
BRANCH   3   6
ATOM      6  C   UNL     1     134.801 126.352 122.453  1.00  0.00    +0.298 C 
BRANCH   6   7
ATOM      7  C   UNL     1     134.965 125.405 121.292  1.00  0.00    +0.006 A 
ATOM      8  C   UNL     1     134.272 125.622 120.092  1.00  0.00    +0.009 A 
ATOM      9  C   UNL     1     135.834 124.307 121.388  1.00  0.00    +0.009 A 
ATOM     10  C   UNL     1     134.451 124.760 119.008  1.00  0.00    +0.001 A 
ATOM     11  C   UNL     1     136.009 123.448 120.302  1.00  0.00    +0.001 A 
ATOM     12  C   UNL     1     135.319 123.677 119.113  1.00  0.00    +0.000 A 
ENDBRANCH   6   7
ENDBRANCH   3   6
ENDBRANCH   2   3
ENDBRANCH   1   2
BRANCH   1  13
ATOM     13  C   UNL     1     131.691 126.242 125.485  1.00  0.00    -0.042 A 
ATOM     14  C   UNL     1     131.780 127.484 126.129  1.00  0.00    +0.004 A 
ATOM     15  C   UNL     1     130.870 125.246 126.042  1.00  0.00    +0.019 A 
ATOM     16  C   UNL     1     131.038 127.740 127.283  1.00  0.00    +0.001 A 
ATOM     17  C   UNL     1     130.119 125.500 127.200  1.00  0.00    +0.060 A 
ATOM     18  C   UNL     1     130.205 126.756 127.813  1.00  0.00    +0.016 A 
BRANCH  17  19
ATOM     19  C   UNL     1     129.225 124.479 127.815  1.00  0.00    +0.337 C 
ATOM     20  O   UNL     1     129.365 123.278 127.653  1.00  0.00    -0.246 OA
BRANCH  19  21
ATOM     21  O   UNL     1     128.276 125.077 128.578  1.00  0.00    -0.465 OA
ATOM     22  C   UNL     1     126.938 124.748 128.193  1.00  0.00    +0.282 C 
ENDBRANCH  19  21
ENDBRANCH  17  19
ENDBRANCH   1  13
TORSDOF 7
ENDMDL
MODEL 19
REMARK VINA RESULT:    -5.938      4.180      7.230
REMARK INTER + INTRA:         -10.873
REMARK INTER:                 -10.440
REMARK INTRA:                  -0.433
REMARK UNBOUND:                -2.506
REMARK SMILES COC(=O)c1cccc(CC[N@H+](C)Cc2ccccc2)c1
REMARK SMILES IDX 10 1 11 2 12 3 13 4 14 6 15 7 16 8 20 9 17 10 19 11 18 12
REMARK SMILES IDX 9 13 8 14 21 15 7 16 5 17 6 18 3 19 4 20 2 21 1 22
REMARK H PARENT 12 5
REMARK INDEX MAP 4 1 3 2 2 3 1 4 25 5 15 6 16 7 17 8 21 9 18 10 20 11 19 12
REMARK INDEX MAP 5 13 6 14 10 15 7 16 9 17 8 18 11 19 12 20 13 21 14 22
ROOT
ATOM      1  C   UNL     1     131.523 126.242 123.325  1.00  0.00    +0.097 C 
ENDROOT
BRANCH   1   2
ATOM      2  C   UNL     1     132.659 125.343 123.838  1.00  0.00    +0.267 C 
BRANCH   2   3
ATOM      3  N   UNL     1     134.053 125.925 123.719  1.00  0.00    -0.333 N 
ATOM      4  C   UNL     1     134.630 125.864 122.333  1.00  0.00    +0.333 C 
ATOM      5  H   UNL     1     133.935 126.927 123.910  1.00  0.00    +0.348 HD
BRANCH   3   6
ATOM      6  C   UNL     1     135.026 125.460 124.786  1.00  0.00    +0.298 C 
BRANCH   6   7
ATOM      7  C   UNL     1     134.909 123.984 125.062  1.00  0.00    +0.006 A 
ATOM      8  C   UNL     1     135.471 123.047 124.182  1.00  0.00    +0.009 A 
ATOM      9  C   UNL     1     134.258 123.527 126.218  1.00  0.00    +0.009 A 
ATOM     10  C   UNL     1     135.387 121.681 124.457  1.00  0.00    +0.001 A 
ATOM     11  C   UNL     1     134.177 122.160 126.488  1.00  0.00    +0.001 A 
ATOM     12  C   UNL     1     134.744 121.239 125.609  1.00  0.00    +0.000 A 
ENDBRANCH   6   7
ENDBRANCH   3   6
ENDBRANCH   2   3
ENDBRANCH   1   2
BRANCH   1  13
ATOM     13  C   UNL     1     130.551 126.726 124.372  1.00  0.00    -0.042 A 
ATOM     14  C   UNL     1     129.234 127.053 124.018  1.00  0.00    +0.004 A 
ATOM     15  C   UNL     1     130.955 126.889 125.708  1.00  0.00    +0.019 A 
ATOM     16  C   UNL     1     128.330 127.498 124.983  1.00  0.00    +0.001 A 
ATOM     17  C   UNL     1     130.048 127.333 126.684  1.00  0.00    +0.060 A 
ATOM     18  C   UNL     1     128.731 127.630 126.312  1.00  0.00    +0.016 A 
BRANCH  17  19
ATOM     19  C   UNL     1     130.428 127.505 128.113  1.00  0.00    +0.337 C 
ATOM     20  O   UNL     1     129.678 127.258 129.043  1.00  0.00    -0.246 OA
BRANCH  19  21
ATOM     21  O   UNL     1     131.709 127.941 128.215  1.00  0.00    -0.465 OA
ATOM     22  C   UNL     1     131.885 128.985 129.177  1.00  0.00    +0.282 C 
ENDBRANCH  19  21
ENDBRANCH  17  19
ENDBRANCH   1  13
TORSDOF 7
ENDMDL
MODEL 20
REMARK VINA RESULT:    -5.932      3.351      6.670
REMARK INTER + INTRA:         -10.865
REMARK INTER:                 -10.597
REMARK INTRA:                  -0.268
REMARK UNBOUND:                -2.506
REMARK SMILES COC(=O)c1cccc(CC[N@H+](C)Cc2ccccc2)c1
REMARK SMILES IDX 10 1 11 2 12 3 13 4 14 6 15 7 16 8 20 9 17 10 19 11 18 12
REMARK SMILES IDX 9 13 8 14 21 15 7 16 5 17 6 18 3 19 4 20 2 21 1 22
REMARK H PARENT 12 5
REMARK INDEX MAP 4 1 3 2 2 3 1 4 25 5 15 6 16 7 17 8 21 9 18 10 20 11 19 12
REMARK INDEX MAP 5 13 6 14 10 15 7 16 9 17 8 18 11 19 12 20 13 21 14 22
ROOT
ATOM      1  C   UNL     1     132.800 124.072 122.935  1.00  0.00    +0.097 C 
ENDROOT
BRANCH   1   2
ATOM      2  C   UNL     1     134.334 124.164 122.897  1.00  0.00    +0.267 C 
BRANCH   2   3
ATOM      3  N   UNL     1     134.895 125.418 122.258  1.00  0.00    -0.333 N 
ATOM      4  C   UNL     1     133.852 126.412 121.834  1.00  0.00    +0.333 C 
ATOM      5  H   UNL     1     135.412 125.886 123.013  1.00  0.00    +0.348 HD
BRANCH   3   6
ATOM      6  C   UNL     1     135.946 125.169 121.193  1.00  0.00    +0.298 C 
BRANCH   6   7
ATOM      7  C   UNL     1     135.389 124.431 120.003  1.00  0.00    +0.006 A 
ATOM      8  C   UNL     1     134.601 125.099 119.054  1.00  0.00    +0.009 A 
ATOM      9  C   UNL     1     135.673 123.070 119.816  1.00  0.00    +0.009 A 
ATOM     10  C   UNL     1     134.113 124.419 117.937  1.00  0.00    +0.001 A 
ATOM     11  C   UNL     1     135.183 122.394 118.697  1.00  0.00    +0.001 A 
ATOM     12  C   UNL     1     134.406 123.070 117.759  1.00  0.00    +0.000 A 
ENDBRANCH   6   7
ENDBRANCH   3   6
ENDBRANCH   2   3
ENDBRANCH   1   2
BRANCH   1  13
ATOM     13  C   UNL     1     132.169 124.245 124.294  1.00  0.00    -0.042 A 
ATOM     14  C   UNL     1     131.658 123.137 124.984  1.00  0.00    +0.004 A 
ATOM     15  C   UNL     1     132.052 125.519 124.876  1.00  0.00    +0.019 A 
ATOM     16  C   UNL     1     131.077 123.290 126.243  1.00  0.00    +0.001 A 
ATOM     17  C   UNL     1     131.471 125.679 126.144  1.00  0.00    +0.060 A 
ATOM     18  C   UNL     1     130.990 124.554 126.825  1.00  0.00    +0.016 A 
BRANCH  17  19
ATOM     19  C   UNL     1     131.341 127.008 126.804  1.00  0.00    +0.337 C 
ATOM     20  O   UNL     1     132.061 127.959 126.548  1.00  0.00    -0.246 OA
BRANCH  19  21
ATOM     21  O   UNL     1     130.314 127.000 127.690  1.00  0.00    -0.465 OA
ATOM     22  C   UNL     1     129.156 127.704 127.232  1.00  0.00    +0.282 C 
ENDBRANCH  19  21
ENDBRANCH  17  19
ENDBRANCH   1  13
TORSDOF 7
ENDMDL
