MODEL 1
REMARK VINA RESULT:    -7.363      0.000      0.000
REMARK INTER + INTRA:         -12.897
REMARK INTER:                 -10.377
REMARK INTRA:                  -2.521
REMARK UNBOUND:                -2.521
REMARK SMILES COC(=O)c1cccc(CC[N@H+](C)Cc2ccccc2)c1
REMARK SMILES IDX 10 1 11 2 12 3 13 4 14 6 15 7 16 8 20 9 17 10 19 11 18 12
REMARK SMILES IDX 9 13 8 14 21 15 7 16 5 17 6 18 3 19 4 20 2 21 1 22
REMARK H PARENT 12 5
REMARK INDEX MAP 4 1 3 2 2 3 1 4 25 5 15 6 16 7 17 8 21 9 18 10 20 11 19 12
REMARK INDEX MAP 5 13 6 14 10 15 7 16 9 17 8 18 11 19 12 20 13 21 14 22
ROOT
ATOM      1  C   UNL     1     136.295 122.255 124.296  1.00  0.00    +0.097 C 
ENDROOT
BRANCH   1   2
ATOM      2  C   UNL     1     134.978 121.534 124.619  1.00  0.00    +0.267 C 
BRANCH   2   3
ATOM      3  N   UNL     1     134.170 122.131 125.754  1.00  0.00    -0.333 N 
ATOM      4  C   UNL     1     134.310 121.400 127.059  1.00  0.00    +0.333 C 
ATOM      5  H   UNL     1     134.597 123.050 125.922  1.00  0.00    +0.348 HD
BRANCH   3   6
ATOM      6  C   UNL     1     132.730 122.452 125.405  1.00  0.00    +0.298 C 
BRANCH   6   7
ATOM      7  C   UNL     1     132.606 123.718 124.599  1.00  0.00    +0.006 A 
ATOM      8  C   UNL     1     132.905 124.962 125.173  1.00  0.00    +0.009 A 
ATOM      9  C   UNL     1     132.214 123.667 123.252  1.00  0.00    +0.009 A 
ATOM     10  C   UNL     1     132.819 126.130 124.414  1.00  0.00    +0.001 A 
ATOM     11  C   UNL     1     132.130 124.838 122.496  1.00  0.00    +0.001 A 
ATOM     12  C   UNL     1     132.435 126.067 123.077  1.00  0.00    +0.000 A 
ENDBRANCH   6   7
ENDBRANCH   3   6
ENDBRANCH   2   3
ENDBRANCH   1   2
BRANCH   1  13
ATOM     13  C   UNL     1     136.166 123.516 123.477  1.00  0.00    -0.042 A 
ATOM     14  C   UNL     1     136.453 124.764 124.048  1.00  0.00    +0.004 A 
ATOM     15  C   UNL     1     135.727 123.465 122.143  1.00  0.00    +0.019 A 
ATOM     16  C   UNL     1     136.339 125.932 123.295  1.00  0.00    +0.001 A 
ATOM     17  C   UNL     1     135.614 124.638 121.379  1.00  0.00    +0.060 A 
ATOM     18  C   UNL     1     135.929 125.870 121.964  1.00  0.00    +0.016 A 
BRANCH  17  19
ATOM     19  C   UNL     1     135.168 124.629 119.958  1.00  0.00    +0.337 C 
ATOM     20  O   UNL     1     134.614 125.574 119.422  1.00  0.00    -0.246 OA
BRANCH  19  21
ATOM     21  O   UNL     1     135.486 123.449 119.368  1.00  0.00    -0.465 OA
ATOM     22  C   UNL     1     135.073 123.362 118.001  1.00  0.00    +0.282 C 
ENDBRANCH  19  21
ENDBRANCH  17  19
ENDBRANCH   1  13
TORSDOF 7
ENDMDL
MODEL 2
REMARK VINA RESULT:    -7.254      3.305      6.292
REMARK INTER + INTRA:         -12.743
REMARK INTER:                 -10.565
REMARK INTRA:                  -2.178
REMARK UNBOUND:                -2.521
REMARK SMILES COC(=O)c1cccc(CC[N@H+](C)Cc2ccccc2)c1
REMARK SMILES IDX 10 1 11 2 12 3 13 4 14 6 15 7 16 8 20 9 17 10 19 11 18 12
REMARK SMILES IDX 9 13 8 14 21 15 7 16 5 17 6 18 3 19 4 20 2 21 1 22
REMARK H PARENT 12 5
REMARK INDEX MAP 4 1 3 2 2 3 1 4 25 5 15 6 16 7 17 8 21 9 18 10 20 11 19 12
REMARK INDEX MAP 5 13 6 14 10 15 7 16 9 17 8 18 11 19 12 20 13 21 14 22
ROOT
ATOM      1  C   UNL     1     132.746 124.821 122.275  1.00  0.00    +0.097 C 
ENDROOT
BRANCH   1   2
ATOM      2  C   UNL     1     134.219 124.474 122.010  1.00  0.00    +0.267 C 
BRANCH   2   3
ATOM      3  N   UNL     1     135.208 125.024 123.018  1.00  0.00    -0.333 N 
ATOM      4  C   UNL     1     135.838 126.327 122.614  1.00  0.00    +0.333 C 
ATOM      5  H   UNL     1     134.641 125.252 123.843  1.00  0.00    +0.348 HD
BRANCH   3   6
ATOM      6  C   UNL     1     136.215 124.013 123.533  1.00  0.00    +0.298 C 
BRANCH   6   7
ATOM      7  C   UNL     1     135.675 123.204 124.683  1.00  0.00    +0.006 A 
ATOM      8  C   UNL     1     135.444 121.828 124.541  1.00  0.00    +0.009 A 
ATOM      9  C   UNL     1     135.418 123.813 125.921  1.00  0.00    +0.009 A 
ATOM     10  C   UNL     1     134.973 121.075 125.618  1.00  0.00    +0.001 A 
ATOM     11  C   UNL     1     134.947 123.056 126.996  1.00  0.00    +0.001 A 
ATOM     12  C   UNL     1     134.728 121.689 126.843  1.00  0.00    +0.000 A 
ENDBRANCH   6   7
ENDBRANCH   3   6
ENDBRANCH   2   3
ENDBRANCH   1   2
BRANCH   1  13
ATOM     13  C   UNL     1     132.271 124.617 123.692  1.00  0.00    -0.042 A 
ATOM     14  C   UNL     1     132.052 123.323 124.186  1.00  0.00    +0.004 A 
ATOM     15  C   UNL     1     132.009 125.715 124.528  1.00  0.00    +0.019 A 
ATOM     16  C   UNL     1     131.617 123.128 125.497  1.00  0.00    +0.001 A 
ATOM     17  C   UNL     1     131.575 125.525 125.850  1.00  0.00    +0.060 A 
ATOM     18  C   UNL     1     131.386 124.223 126.329  1.00  0.00    +0.016 A 
BRANCH  17  19
ATOM     19  C   UNL     1     131.301 126.660 126.774  1.00  0.00    +0.337 C 
ATOM     20  O   UNL     1     131.903 127.720 126.735  1.00  0.00    -0.246 OA
BRANCH  19  21
ATOM     21  O   UNL     1     130.290 126.347 127.624  1.00  0.00    -0.465 OA
ATOM     22  C   UNL     1     130.014 127.367 128.589  1.00  0.00    +0.282 C 
ENDBRANCH  19  21
ENDBRANCH  17  19
ENDBRANCH   1  13
TORSDOF 7
ENDMDL
MODEL 3
REMARK VINA RESULT:    -7.238      1.548      3.439
REMARK INTER + INTRA:         -12.721
REMARK INTER:                 -10.425
REMARK INTRA:                  -2.296
REMARK UNBOUND:                -2.521
REMARK SMILES COC(=O)c1cccc(CC[N@H+](C)Cc2ccccc2)c1
REMARK SMILES IDX 10 1 11 2 12 3 13 4 14 6 15 7 16 8 20 9 17 10 19 11 18 12
REMARK SMILES IDX 9 13 8 14 21 15 7 16 5 17 6 18 3 19 4 20 2 21 1 22
REMARK H PARENT 12 5
REMARK INDEX MAP 4 1 3 2 2 3 1 4 25 5 15 6 16 7 17 8 21 9 18 10 20 11 19 12
REMARK INDEX MAP 5 13 6 14 10 15 7 16 9 17 8 18 11 19 12 20 13 21 14 22
ROOT
ATOM      1  C   UNL     1     132.388 126.034 123.082  1.00  0.00    +0.097 C 
ENDROOT
BRANCH   1   2
ATOM      2  C   UNL     1     132.505 126.025 124.614  1.00  0.00    +0.267 C 
BRANCH   2   3
ATOM      3  N   UNL     1     131.961 124.788 125.301  1.00  0.00    -0.333 N 
ATOM      4  C   UNL     1     130.651 125.001 126.005  1.00  0.00    +0.333 C 
ATOM      5  H   UNL     1     131.744 124.139 124.535  1.00  0.00    +0.348 HD
BRANCH   3   6
ATOM      6  C   UNL     1     132.972 124.037 126.145  1.00  0.00    +0.298 C 
BRANCH   6   7
ATOM      7  C   UNL     1     134.185 123.625 125.351  1.00  0.00    +0.006 A 
ATOM      8  C   UNL     1     134.058 122.774 124.244  1.00  0.00    +0.009 A 
ATOM      9  C   UNL     1     135.457 124.110 125.695  1.00  0.00    +0.009 A 
ATOM     10  C   UNL     1     135.179 122.420 123.492  1.00  0.00    +0.001 A 
ATOM     11  C   UNL     1     136.575 123.753 124.940  1.00  0.00    +0.001 A 
ATOM     12  C   UNL     1     136.435 122.911 123.839  1.00  0.00    +0.000 A 
ENDBRANCH   6   7
ENDBRANCH   3   6
ENDBRANCH   2   3
ENDBRANCH   1   2
BRANCH   1  13
ATOM     13  C   UNL     1     133.675 125.815 122.327  1.00  0.00    -0.042 A 
ATOM     14  C   UNL     1     134.882 126.333 122.818  1.00  0.00    +0.004 A 
ATOM     15  C   UNL     1     133.683 125.118 121.107  1.00  0.00    +0.019 A 
ATOM     16  C   UNL     1     136.075 126.129 122.126  1.00  0.00    +0.001 A 
ATOM     17  C   UNL     1     134.882 124.906 120.408  1.00  0.00    +0.060 A 
ATOM     18  C   UNL     1     136.079 125.412 120.930  1.00  0.00    +0.016 A 
BRANCH  17  19
ATOM     19  C   UNL     1     134.939 124.161 119.120  1.00  0.00    +0.337 C 
ATOM     20  O   UNL     1     135.448 123.058 119.004  1.00  0.00    -0.246 OA
BRANCH  19  21
ATOM     21  O   UNL     1     134.332 124.868 118.134  1.00  0.00    -0.465 OA
ATOM     22  C   UNL     1     133.566 124.061 117.236  1.00  0.00    +0.282 C 
ENDBRANCH  19  21
ENDBRANCH  17  19
ENDBRANCH   1  13
TORSDOF 7
ENDMDL
MODEL 4
REMARK VINA RESULT:    -7.217      1.825      4.072
REMARK INTER + INTRA:         -12.691
REMARK INTER:                 -11.857
REMARK INTRA:                  -0.834
REMARK UNBOUND:                -2.521
REMARK SMILES COC(=O)c1cccc(CC[N@H+](C)Cc2ccccc2)c1
REMARK SMILES IDX 10 1 11 2 12 3 13 4 14 6 15 7 16 8 20 9 17 10 19 11 18 12
REMARK SMILES IDX 9 13 8 14 21 15 7 16 5 17 6 18 3 19 4 20 2 21 1 22
REMARK H PARENT 12 5
REMARK INDEX MAP 4 1 3 2 2 3 1 4 25 5 15 6 16 7 17 8 21 9 18 10 20 11 19 12
REMARK INDEX MAP 5 13 6 14 10 15 7 16 9 17 8 18 11 19 12 20 13 21 14 22
ROOT
ATOM      1  C   UNL     1     134.306 126.475 121.648  1.00  0.00    +0.097 C 
ENDROOT
BRANCH   1   2
ATOM      2  C   UNL     1     134.437 126.314 123.171  1.00  0.00    +0.267 C 
BRANCH   2   3
ATOM      3  N   UNL     1     133.540 125.262 123.793  1.00  0.00    -0.333 N 
ATOM      4  C   UNL     1     132.077 125.453 123.507  1.00  0.00    +0.333 C 
ATOM      5  H   UNL     1     133.789 124.389 123.312  1.00  0.00    +0.348 HD
BRANCH   3   6
ATOM      6  C   UNL     1     133.826 124.971 125.254  1.00  0.00    +0.298 C 
BRANCH   6   7
ATOM      7  C   UNL     1     134.434 123.608 125.456  1.00  0.00    +0.006 A 
ATOM      8  C   UNL     1     134.760 122.801 124.356  1.00  0.00    +0.009 A 
ATOM      9  C   UNL     1     134.707 123.136 126.750  1.00  0.00    +0.009 A 
ATOM     10  C   UNL     1     135.353 121.552 124.546  1.00  0.00    +0.001 A 
ATOM     11  C   UNL     1     135.299 121.886 126.935  1.00  0.00    +0.001 A 
ATOM     12  C   UNL     1     135.623 121.097 125.834  1.00  0.00    +0.000 A 
ENDBRANCH   6   7
ENDBRANCH   3   6
ENDBRANCH   2   3
ENDBRANCH   1   2
BRANCH   1  13
ATOM     13  C   UNL     1     134.810 125.317 120.823  1.00  0.00    -0.042 A 
ATOM     14  C   UNL     1     135.874 124.528 121.284  1.00  0.00    +0.004 A 
ATOM     15  C   UNL     1     134.247 125.029 119.568  1.00  0.00    +0.019 A 
ATOM     16  C   UNL     1     136.340 123.454 120.527  1.00  0.00    +0.001 A 
ATOM     17  C   UNL     1     134.710 123.947 118.803  1.00  0.00    +0.060 A 
ATOM     18  C   UNL     1     135.757 123.158 119.295  1.00  0.00    +0.016 A 
BRANCH  17  19
ATOM     19  C   UNL     1     134.132 123.597 117.477  1.00  0.00    +0.337 C 
ATOM     20  O   UNL     1     133.468 124.371 116.807  1.00  0.00    -0.246 OA
BRANCH  19  21
ATOM     21  O   UNL     1     134.471 122.329 117.130  1.00  0.00    -0.465 OA
ATOM     22  C   UNL     1     135.153 122.240 115.876  1.00  0.00    +0.282 C 
ENDBRANCH  19  21
ENDBRANCH  17  19
ENDBRANCH   1  13
TORSDOF 7
ENDMDL
MODEL 5
REMARK VINA RESULT:    -6.835      1.843      3.859
REMARK INTER + INTRA:         -12.153
REMARK INTER:                 -11.321
REMARK INTRA:                  -0.832
REMARK UNBOUND:                -2.521
REMARK SMILES COC(=O)c1cccc(CC[N@H+](C)Cc2ccccc2)c1
REMARK SMILES IDX 10 1 11 2 12 3 13 4 14 6 15 7 16 8 20 9 17 10 19 11 18 12
REMARK SMILES IDX 9 13 8 14 21 15 7 16 5 17 6 18 3 19 4 20 2 21 1 22
REMARK H PARENT 12 5
REMARK INDEX MAP 4 1 3 2 2 3 1 4 25 5 15 6 16 7 17 8 21 9 18 10 20 11 19 12
REMARK INDEX MAP 5 13 6 14 10 15 7 16 9 17 8 18 11 19 12 20 13 21 14 22
ROOT
ATOM      1  C   UNL     1     135.960 126.814 123.015  1.00  0.00    +0.097 C 
ENDROOT
BRANCH   1   2
ATOM      2  C   UNL     1     135.730 126.706 124.531  1.00  0.00    +0.267 C 
BRANCH   2   3
ATOM      3  N   UNL     1     136.594 125.688 125.249  1.00  0.00    -0.333 N 
ATOM      4  C   UNL     1     137.928 126.218 125.694  1.00  0.00    +0.333 C 
ATOM      5  H   UNL     1     136.089 125.486 126.121  1.00  0.00    +0.348 HD
BRANCH   3   6
ATOM      6  C   UNL     1     136.691 124.341 124.559  1.00  0.00    +0.298 C 
BRANCH   6   7
ATOM      7  C   UNL     1     135.811 123.304 125.207  1.00  0.00    +0.006 A 
ATOM      8  C   UNL     1     135.101 123.601 126.379  1.00  0.00    +0.009 A 
ATOM      9  C   UNL     1     135.671 122.031 124.630  1.00  0.00    +0.009 A 
ATOM     10  C   UNL     1     134.263 122.648 126.958  1.00  0.00    +0.001 A 
ATOM     11  C   UNL     1     134.832 121.081 125.214  1.00  0.00    +0.001 A 
ATOM     12  C   UNL     1     134.127 121.391 126.375  1.00  0.00    +0.000 A 
ENDBRANCH   6   7
ENDBRANCH   3   6
ENDBRANCH   2   3
ENDBRANCH   1   2
BRANCH   1  13
ATOM     13  C   UNL     1     134.946 126.109 122.149  1.00  0.00    -0.042 A 
ATOM     14  C   UNL     1     133.678 125.793 122.657  1.00  0.00    +0.004 A 
ATOM     15  C   UNL     1     135.264 125.728 120.834  1.00  0.00    +0.019 A 
ATOM     16  C   UNL     1     132.735 125.145 121.859  1.00  0.00    +0.001 A 
ATOM     17  C   UNL     1     134.318 125.079 120.025  1.00  0.00    +0.060 A 
ATOM     18  C   UNL     1     133.049 124.795 120.546  1.00  0.00    +0.016 A 
BRANCH  17  19
ATOM     19  C   UNL     1     134.607 124.673 118.622  1.00  0.00    +0.337 C 
ATOM     20  O   UNL     1     134.199 125.283 117.648  1.00  0.00    -0.246 OA
BRANCH  19  21
ATOM     21  O   UNL     1     135.391 123.566 118.600  1.00  0.00    -0.465 OA
ATOM     22  C   UNL     1     134.913 122.541 117.723  1.00  0.00    +0.282 C 
ENDBRANCH  19  21
ENDBRANCH  17  19
ENDBRANCH   1  13
TORSDOF 7
ENDMDL
MODEL 6
REMARK VINA RESULT:    -6.782      1.611      2.252
REMARK INTER + INTRA:         -12.078
REMARK INTER:                 -11.470
REMARK INTRA:                  -0.608
REMARK UNBOUND:                -2.521
REMARK SMILES COC(=O)c1cccc(CC[N@H+](C)Cc2ccccc2)c1
REMARK SMILES IDX 10 1 11 2 12 3 13 4 14 6 15 7 16 8 20 9 17 10 19 11 18 12
REMARK SMILES IDX 9 13 8 14 21 15 7 16 5 17 6 18 3 19 4 20 2 21 1 22
REMARK H PARENT 12 5
REMARK INDEX MAP 4 1 3 2 2 3 1 4 25 5 15 6 16 7 17 8 21 9 18 10 20 11 19 12
REMARK INDEX MAP 5 13 6 14 10 15 7 16 9 17 8 18 11 19 12 20 13 21 14 22
ROOT
ATOM      1  C   UNL     1     135.754 122.806 123.233  1.00  0.00    +0.097 C 
ENDROOT
BRANCH   1   2
ATOM      2  C   UNL     1     136.106 123.302 124.644  1.00  0.00    +0.267 C 
BRANCH   2   3
ATOM      3  N   UNL     1     135.565 122.462 125.784  1.00  0.00    -0.333 N 
ATOM      4  C   UNL     1     136.517 121.409 126.278  1.00  0.00    +0.333 C 
ATOM      5  H   UNL     1     135.469 123.117 126.569  1.00  0.00    +0.348 HD
BRANCH   3   6
ATOM      6  C   UNL     1     134.158 121.937 125.570  1.00  0.00    +0.298 C 
BRANCH   6   7
ATOM      7  C   UNL     1     133.108 122.929 125.994  1.00  0.00    +0.006 A 
ATOM      8  C   UNL     1     133.361 124.307 125.933  1.00  0.00    +0.009 A 
ATOM      9  C   UNL     1     131.850 122.487 126.434  1.00  0.00    +0.009 A 
ATOM     10  C   UNL     1     132.374 125.224 126.297  1.00  0.00    +0.001 A 
ATOM     11  C   UNL     1     130.866 123.408 126.797  1.00  0.00    +0.001 A 
ATOM     12  C   UNL     1     131.128 124.775 126.726  1.00  0.00    +0.000 A 
ENDBRANCH   6   7
ENDBRANCH   3   6
ENDBRANCH   2   3
ENDBRANCH   1   2
BRANCH   1  13
ATOM     13  C   UNL     1     135.229 123.854 122.284  1.00  0.00    -0.042 A 
ATOM     14  C   UNL     1     134.761 125.082 122.773  1.00  0.00    +0.004 A 
ATOM     15  C   UNL     1     135.168 123.607 120.902  1.00  0.00    +0.019 A 
ATOM     16  C   UNL     1     134.278 126.056 121.900  1.00  0.00    +0.001 A 
ATOM     17  C   UNL     1     134.686 124.585 120.018  1.00  0.00    +0.060 A 
ATOM     18  C   UNL     1     134.247 125.813 120.527  1.00  0.00    +0.016 A 
BRANCH  17  19
ATOM     19  C   UNL     1     134.619 124.372 118.546  1.00  0.00    +0.337 C 
ATOM     20  O   UNL     1     134.250 125.227 117.758  1.00  0.00    -0.246 OA
BRANCH  19  21
ATOM     21  O   UNL     1     135.043 123.123 118.227  1.00  0.00    -0.465 OA
ATOM     22  C   UNL     1     134.884 122.799 116.843  1.00  0.00    +0.282 C 
ENDBRANCH  19  21
ENDBRANCH  17  19
ENDBRANCH   1  13
TORSDOF 7
ENDMDL
MODEL 7
REMARK VINA RESULT:    -6.738      2.339      4.270
REMARK INTER + INTRA:         -12.015
REMARK INTER:                  -9.747
REMARK INTRA:                  -2.269
REMARK UNBOUND:                -2.521
REMARK SMILES COC(=O)c1cccc(CC[N@H+](C)Cc2ccccc2)c1
REMARK SMILES IDX 10 1 11 2 12 3 13 4 14 6 15 7 16 8 20 9 17 10 19 11 18 12
REMARK SMILES IDX 9 13 8 14 21 15 7 16 5 17 6 18 3 19 4 20 2 21 1 22
REMARK H PARENT 12 5
REMARK INDEX MAP 4 1 3 2 2 3 1 4 25 5 15 6 16 7 17 8 21 9 18 10 20 11 19 12
REMARK INDEX MAP 5 13 6 14 10 15 7 16 9 17 8 18 11 19 12 20 13 21 14 22
ROOT
ATOM      1  C   UNL     1     131.912 124.099 123.654  1.00  0.00    +0.097 C 
ENDROOT
BRANCH   1   2
ATOM      2  C   UNL     1     131.584 122.774 124.360  1.00  0.00    +0.267 C 
BRANCH   2   3
ATOM      3  N   UNL     1     131.233 122.889 125.830  1.00  0.00    -0.333 N 
ATOM      4  C   UNL     1     130.981 124.295 126.294  1.00  0.00    +0.333 C 
ATOM      5  H   UNL     1     130.325 122.416 125.919  1.00  0.00    +0.348 HD
BRANCH   3   6
ATOM      6  C   UNL     1     132.145 122.112 126.760  1.00  0.00    +0.298 C 
BRANCH   6   7
ATOM      7  C   UNL     1     133.589 122.190 126.341  1.00  0.00    +0.006 A 
ATOM      8  C   UNL     1     134.361 123.320 126.650  1.00  0.00    +0.009 A 
ATOM      9  C   UNL     1     134.190 121.121 125.658  1.00  0.00    +0.009 A 
ATOM     10  C   UNL     1     135.708 123.376 126.288  1.00  0.00    +0.001 A 
ATOM     11  C   UNL     1     135.537 121.182 125.298  1.00  0.00    +0.001 A 
ATOM     12  C   UNL     1     136.295 122.307 125.615  1.00  0.00    +0.000 A 
ENDBRANCH   6   7
ENDBRANCH   3   6
ENDBRANCH   2   3
ENDBRANCH   1   2
BRANCH   1  13
ATOM     13  C   UNL     1     133.364 124.311 123.304  1.00  0.00    -0.042 A 
ATOM     14  C   UNL     1     134.086 123.310 122.641  1.00  0.00    +0.004 A 
ATOM     15  C   UNL     1     134.024 125.498 123.664  1.00  0.00    +0.019 A 
ATOM     16  C   UNL     1     135.428 123.502 122.311  1.00  0.00    +0.001 A 
ATOM     17  C   UNL     1     135.373 125.699 123.332  1.00  0.00    +0.060 A 
ATOM     18  C   UNL     1     136.068 124.695 122.648  1.00  0.00    +0.016 A 
BRANCH  17  19
ATOM     19  C   UNL     1     136.107 126.947 123.680  1.00  0.00    +0.337 C 
ATOM     20  O   UNL     1     136.421 127.793 122.859  1.00  0.00    -0.246 OA
BRANCH  19  21
ATOM     21  O   UNL     1     136.342 127.004 125.015  1.00  0.00    -0.465 OA
ATOM     22  C   UNL     1     137.581 126.406 125.406  1.00  0.00    +0.282 C 
ENDBRANCH  19  21
ENDBRANCH  17  19
ENDBRANCH   1  13
TORSDOF 7
ENDMDL
MODEL 8
REMARK VINA RESULT:    -6.724      2.514      4.684
REMARK INTER + INTRA:         -11.996
REMARK INTER:                 -10.312
REMARK INTRA:                  -1.684
REMARK UNBOUND:                -2.521
REMARK SMILES COC(=O)c1cccc(CC[N@H+](C)Cc2ccccc2)c1
REMARK SMILES IDX 10 1 11 2 12 3 13 4 14 6 15 7 16 8 20 9 17 10 19 11 18 12
REMARK SMILES IDX 9 13 8 14 21 15 7 16 5 17 6 18 3 19 4 20 2 21 1 22
REMARK H PARENT 12 5
REMARK INDEX MAP 4 1 3 2 2 3 1 4 25 5 15 6 16 7 17 8 21 9 18 10 20 11 19 12
REMARK INDEX MAP 5 13 6 14 10 15 7 16 9 17 8 18 11 19 12 20 13 21 14 22
ROOT
ATOM      1  C   UNL     1     132.276 122.850 126.355  1.00  0.00    +0.097 C 
ENDROOT
BRANCH   1   2
ATOM      2  C   UNL     1     131.297 123.303 125.260  1.00  0.00    +0.267 C 
BRANCH   2   3
ATOM      3  N   UNL     1     131.739 124.504 124.448  1.00  0.00    -0.333 N 
ATOM      4  C   UNL     1     130.974 125.763 124.744  1.00  0.00    +0.333 C 
ATOM      5  H   UNL     1     132.696 124.698 124.769  1.00  0.00    +0.348 HD
BRANCH   3   6
ATOM      6  C   UNL     1     131.896 124.240 122.963  1.00  0.00    +0.298 C 
BRANCH   6   7
ATOM      7  C   UNL     1     133.248 124.660 122.448  1.00  0.00    +0.006 A 
ATOM      8  C   UNL     1     134.266 123.714 122.258  1.00  0.00    +0.009 A 
ATOM      9  C   UNL     1     133.500 126.004 122.128  1.00  0.00    +0.009 A 
ATOM     10  C   UNL     1     135.507 124.103 121.751  1.00  0.00    +0.001 A 
ATOM     11  C   UNL     1     134.742 126.388 121.621  1.00  0.00    +0.001 A 
ATOM     12  C   UNL     1     135.743 125.437 121.431  1.00  0.00    +0.000 A 
ENDBRANCH   6   7
ENDBRANCH   3   6
ENDBRANCH   2   3
ENDBRANCH   1   2
BRANCH   1  13
ATOM     13  C   UNL     1     133.731 122.819 125.957  1.00  0.00    -0.042 A 
ATOM     14  C   UNL     1     134.375 121.596 125.722  1.00  0.00    +0.004 A 
ATOM     15  C   UNL     1     134.472 124.008 125.848  1.00  0.00    +0.019 A 
ATOM     16  C   UNL     1     135.719 121.563 125.350  1.00  0.00    +0.001 A 
ATOM     17  C   UNL     1     135.824 123.981 125.471  1.00  0.00    +0.060 A 
ATOM     18  C   UNL     1     136.440 122.749 125.217  1.00  0.00    +0.016 A 
BRANCH  17  19
ATOM     19  C   UNL     1     136.641 125.217 125.328  1.00  0.00    +0.337 C 
ATOM     20  O   UNL     1     137.849 125.248 125.500  1.00  0.00    -0.246 OA
BRANCH  19  21
ATOM     21  O   UNL     1     135.860 126.264 124.963  1.00  0.00    -0.465 OA
ATOM     22  C   UNL     1     136.486 127.538 125.144  1.00  0.00    +0.282 C 
ENDBRANCH  19  21
ENDBRANCH  17  19
ENDBRANCH   1  13
TORSDOF 7
ENDMDL
MODEL 9
REMARK VINA RESULT:    -6.669      2.823      5.308
REMARK INTER + INTRA:         -11.919
REMARK INTER:                  -9.946
REMARK INTRA:                  -1.973
REMARK UNBOUND:                -2.521
REMARK SMILES COC(=O)c1cccc(CC[N@H+](C)Cc2ccccc2)c1
REMARK SMILES IDX 10 1 11 2 12 3 13 4 14 6 15 7 16 8 20 9 17 10 19 11 18 12
REMARK SMILES IDX 9 13 8 14 21 15 7 16 5 17 6 18 3 19 4 20 2 21 1 22
REMARK H PARENT 12 5
REMARK INDEX MAP 4 1 3 2 2 3 1 4 25 5 15 6 16 7 17 8 21 9 18 10 20 11 19 12
REMARK INDEX MAP 5 13 6 14 10 15 7 16 9 17 8 18 11 19 12 20 13 21 14 22
ROOT
ATOM      1  C   UNL     1     132.778 122.366 125.487  1.00  0.00    +0.097 C 
ENDROOT
BRANCH   1   2
ATOM      2  C   UNL     1     134.033 122.420 126.372  1.00  0.00    +0.267 C 
BRANCH   2   3
ATOM      3  N   UNL     1     135.352 122.273 125.640  1.00  0.00    -0.333 N 
ATOM      4  C   UNL     1     136.244 121.196 126.190  1.00  0.00    +0.333 C 
ATOM      5  H   UNL     1     135.094 121.945 124.701  1.00  0.00    +0.348 HD
BRANCH   3   6
ATOM      6  C   UNL     1     136.083 123.577 125.386  1.00  0.00    +0.298 C 
BRANCH   6   7
ATOM      7  C   UNL     1     136.020 123.995 123.940  1.00  0.00    +0.006 A 
ATOM      8  C   UNL     1     136.014 123.033 122.919  1.00  0.00    +0.009 A 
ATOM      9  C   UNL     1     135.941 125.353 123.595  1.00  0.00    +0.009 A 
ATOM     10  C   UNL     1     135.924 123.422 121.582  1.00  0.00    +0.001 A 
ATOM     11  C   UNL     1     135.852 125.738 122.257  1.00  0.00    +0.001 A 
ATOM     12  C   UNL     1     135.841 124.772 121.252  1.00  0.00    +0.000 A 
ENDBRANCH   6   7
ENDBRANCH   3   6
ENDBRANCH   2   3
ENDBRANCH   1   2
BRANCH   1  13
ATOM     13  C   UNL     1     132.421 123.650 124.780  1.00  0.00    -0.042 A 
ATOM     14  C   UNL     1     132.499 123.736 123.383  1.00  0.00    +0.004 A 
ATOM     15  C   UNL     1     132.037 124.789 125.509  1.00  0.00    +0.019 A 
ATOM     16  C   UNL     1     132.166 124.919 122.725  1.00  0.00    +0.001 A 
ATOM     17  C   UNL     1     131.697 125.982 124.851  1.00  0.00    +0.060 A 
ATOM     18  C   UNL     1     131.759 126.036 123.453  1.00  0.00    +0.016 A 
BRANCH  17  19
ATOM     19  C   UNL     1     131.270 127.207 125.583  1.00  0.00    +0.337 C 
ATOM     20  O   UNL     1     130.398 127.959 125.181  1.00  0.00    -0.246 OA
BRANCH  19  21
ATOM     21  O   UNL     1     131.964 127.335 126.741  1.00  0.00    -0.465 OA
ATOM     22  C   UNL     1     131.264 128.065 127.752  1.00  0.00    +0.282 C 
ENDBRANCH  19  21
ENDBRANCH  17  19
ENDBRANCH   1  13
TORSDOF 7
ENDMDL
MODEL 10
REMARK VINA RESULT:    -6.515      3.571      6.505
REMARK INTER + INTRA:         -11.701
REMARK INTER:                 -11.307
REMARK INTRA:                  -0.394
REMARK UNBOUND:                -2.521
REMARK SMILES COC(=O)c1cccc(CC[N@H+](C)Cc2ccccc2)c1
REMARK SMILES IDX 10 1 11 2 12 3 13 4 14 6 15 7 16 8 20 9 17 10 19 11 18 12
REMARK SMILES IDX 9 13 8 14 21 15 7 16 5 17 6 18 3 19 4 20 2 21 1 22
REMARK H PARENT 12 5
REMARK INDEX MAP 4 1 3 2 2 3 1 4 25 5 15 6 16 7 17 8 21 9 18 10 20 11 19 12
REMARK INDEX MAP 5 13 6 14 10 15 7 16 9 17 8 18 11 19 12 20 13 21 14 22
ROOT
ATOM      1  C   UNL     1     133.395 123.302 125.801  1.00  0.00    +0.097 C 
ENDROOT
BRANCH   1   2
ATOM      2  C   UNL     1     133.971 123.874 124.497  1.00  0.00    +0.267 C 
BRANCH   2   3
ATOM      3  N   UNL     1     134.841 122.924 123.698  1.00  0.00    -0.333 N 
ATOM      4  C   UNL     1     135.309 121.722 124.469  1.00  0.00    +0.333 C 
ATOM      5  H   UNL     1     134.216 122.544 122.975  1.00  0.00    +0.348 HD
BRANCH   3   6
ATOM      6  C   UNL     1     135.951 123.593 122.910  1.00  0.00    +0.298 C 
BRANCH   6   7
ATOM      7  C   UNL     1     135.498 124.025 121.540  1.00  0.00    +0.006 A 
ATOM      8  C   UNL     1     135.781 123.239 120.413  1.00  0.00    +0.009 A 
ATOM      9  C   UNL     1     134.763 125.210 121.376  1.00  0.00    +0.009 A 
ATOM     10  C   UNL     1     135.332 123.627 119.150  1.00  0.00    +0.001 A 
ATOM     11  C   UNL     1     134.317 125.594 120.110  1.00  0.00    +0.001 A 
ATOM     12  C   UNL     1     134.600 124.801 119.000  1.00  0.00    +0.000 A 
ENDBRANCH   6   7
ENDBRANCH   3   6
ENDBRANCH   2   3
ENDBRANCH   1   2
BRANCH   1  13
ATOM     13  C   UNL     1     132.183 124.015 126.348  1.00  0.00    -0.042 A 
ATOM     14  C   UNL     1     131.065 123.285 126.776  1.00  0.00    +0.004 A 
ATOM     15  C   UNL     1     132.141 125.418 126.409  1.00  0.00    +0.019 A 
ATOM     16  C   UNL     1     129.944 123.939 127.286  1.00  0.00    +0.001 A 
ATOM     17  C   UNL     1     131.017 126.081 126.925  1.00  0.00    +0.060 A 
ATOM     18  C   UNL     1     129.921 125.331 127.368  1.00  0.00    +0.016 A 
BRANCH  17  19
ATOM     19  C   UNL     1     130.936 127.565 127.022  1.00  0.00    +0.337 C 
ATOM     20  O   UNL     1     131.070 128.310 126.064  1.00  0.00    -0.246 OA
BRANCH  19  21
ATOM     21  O   UNL     1     130.673 127.944 128.298  1.00  0.00    -0.465 OA
ATOM     22  C   UNL     1     131.682 128.786 128.865  1.00  0.00    +0.282 C 
ENDBRANCH  19  21
ENDBRANCH  17  19
ENDBRANCH   1  13
TORSDOF 7
ENDMDL
MODEL 11
REMARK VINA RESULT:    -6.365      3.442      6.090
REMARK INTER + INTRA:         -11.491
REMARK INTER:                 -10.488
REMARK INTRA:                  -1.003
REMARK UNBOUND:                -2.521
REMARK SMILES COC(=O)c1cccc(CC[N@H+](C)Cc2ccccc2)c1
REMARK SMILES IDX 10 1 11 2 12 3 13 4 14 6 15 7 16 8 20 9 17 10 19 11 18 12
REMARK SMILES IDX 9 13 8 14 21 15 7 16 5 17 6 18 3 19 4 20 2 21 1 22
REMARK H PARENT 12 5
REMARK INDEX MAP 4 1 3 2 2 3 1 4 25 5 15 6 16 7 17 8 21 9 18 10 20 11 19 12
REMARK INDEX MAP 5 13 6 14 10 15 7 16 9 17 8 18 11 19 12 20 13 21 14 22
ROOT
ATOM      1  C   UNL     1     134.410 123.706 125.471  1.00  0.00    +0.097 C 
ENDROOT
BRANCH   1   2
ATOM      2  C   UNL     1     135.569 124.557 126.013  1.00  0.00    +0.267 C 
BRANCH   2   3
ATOM      3  N   UNL     1     136.315 125.375 124.977  1.00  0.00    -0.333 N 
ATOM      4  C   UNL     1     137.628 125.926 125.457  1.00  0.00    +0.333 C 
ATOM      5  H   UNL     1     136.566 124.701 124.244  1.00  0.00    +0.348 HD
BRANCH   3   6
ATOM      6  C   UNL     1     135.468 126.405 124.254  1.00  0.00    +0.298 C 
BRANCH   6   7
ATOM      7  C   UNL     1     135.127 125.980 122.850  1.00  0.00    +0.006 A 
ATOM      8  C   UNL     1     133.793 125.953 122.416  1.00  0.00    +0.009 A 
ATOM      9  C   UNL     1     136.143 125.628 121.948  1.00  0.00    +0.009 A 
ATOM     10  C   UNL     1     133.484 125.589 121.105  1.00  0.00    +0.001 A 
ATOM     11  C   UNL     1     135.829 125.264 120.638  1.00  0.00    +0.001 A 
ATOM     12  C   UNL     1     134.501 125.247 120.217  1.00  0.00    +0.000 A 
ENDBRANCH   6   7
ENDBRANCH   3   6
ENDBRANCH   2   3
ENDBRANCH   1   2
BRANCH   1  13
ATOM     13  C   UNL     1     133.038 124.072 125.980  1.00  0.00    -0.042 A 
ATOM     14  C   UNL     1     132.155 123.074 126.418  1.00  0.00    +0.004 A 
ATOM     15  C   UNL     1     132.609 125.410 125.994  1.00  0.00    +0.019 A 
ATOM     16  C   UNL     1     130.887 123.408 126.893  1.00  0.00    +0.001 A 
ATOM     17  C   UNL     1     131.335 125.752 126.474  1.00  0.00    +0.060 A 
ATOM     18  C   UNL     1     130.480 124.741 126.929  1.00  0.00    +0.016 A 
BRANCH  17  19
ATOM     19  C   UNL     1     130.846 127.158 126.521  1.00  0.00    +0.337 C 
ATOM     20  O   UNL     1     129.710 127.485 126.222  1.00  0.00    -0.246 OA
BRANCH  19  21
ATOM     21  O   UNL     1     131.827 127.987 126.959  1.00  0.00    -0.465 OA
ATOM     22  C   UNL     1     131.658 128.408 128.316  1.00  0.00    +0.282 C 
ENDBRANCH  19  21
ENDBRANCH  17  19
ENDBRANCH   1  13
TORSDOF 7
ENDMDL
MODEL 12
REMARK VINA RESULT:    -6.348      4.074      6.967
REMARK INTER + INTRA:         -11.466
REMARK INTER:                 -10.188
REMARK INTRA:                  -1.278
REMARK UNBOUND:                -2.521
REMARK SMILES COC(=O)c1cccc(CC[N@H+](C)Cc2ccccc2)c1
REMARK SMILES IDX 10 1 11 2 12 3 13 4 14 6 15 7 16 8 20 9 17 10 19 11 18 12
REMARK SMILES IDX 9 13 8 14 21 15 7 16 5 17 6 18 3 19 4 20 2 21 1 22
REMARK H PARENT 12 5
REMARK INDEX MAP 4 1 3 2 2 3 1 4 25 5 15 6 16 7 17 8 21 9 18 10 20 11 19 12
REMARK INDEX MAP 5 13 6 14 10 15 7 16 9 17 8 18 11 19 12 20 13 21 14 22
ROOT
ATOM      1  C   UNL     1     133.499 125.973 124.972  1.00  0.00    +0.097 C 
ENDROOT
BRANCH   1   2
ATOM      2  C   UNL     1     133.966 125.281 123.682  1.00  0.00    +0.267 C 
BRANCH   2   3
ATOM      3  N   UNL     1     135.456 125.342 123.414  1.00  0.00    -0.333 N 
ATOM      4  C   UNL     1     135.843 126.268 122.296  1.00  0.00    +0.333 C 
ATOM      5  H   UNL     1     135.856 125.770 124.258  1.00  0.00    +0.348 HD
BRANCH   3   6
ATOM      6  C   UNL     1     136.140 123.991 123.329  1.00  0.00    +0.298 C 
BRANCH   6   7
ATOM      7  C   UNL     1     135.755 123.083 124.468  1.00  0.00    +0.006 A 
ATOM      8  C   UNL     1     135.956 123.483 125.797  1.00  0.00    +0.009 A 
ATOM      9  C   UNL     1     135.167 121.834 124.214  1.00  0.00    +0.009 A 
ATOM     10  C   UNL     1     135.570 122.653 126.851  1.00  0.00    +0.001 A 
ATOM     11  C   UNL     1     134.782 121.008 125.271  1.00  0.00    +0.001 A 
ATOM     12  C   UNL     1     134.982 121.419 126.587  1.00  0.00    +0.000 A 
ENDBRANCH   6   7
ENDBRANCH   3   6
ENDBRANCH   2   3
ENDBRANCH   1   2
BRANCH   1  13
ATOM     13  C   UNL     1     132.371 125.292 125.707  1.00  0.00    -0.042 A 
ATOM     14  C   UNL     1     132.314 123.893 125.777  1.00  0.00    +0.004 A 
ATOM     15  C   UNL     1     131.345 126.044 126.304  1.00  0.00    +0.019 A 
ATOM     16  C   UNL     1     131.276 123.259 126.459  1.00  0.00    +0.001 A 
ATOM     17  C   UNL     1     130.299 125.410 126.995  1.00  0.00    +0.060 A 
ATOM     18  C   UNL     1     130.276 124.013 127.073  1.00  0.00    +0.016 A 
BRANCH  17  19
ATOM     19  C   UNL     1     129.200 126.168 127.655  1.00  0.00    +0.337 C 
ATOM     20  O   UNL     1     128.682 127.161 127.171  1.00  0.00    -0.246 OA
BRANCH  19  21
ATOM     21  O   UNL     1     128.861 125.584 128.832  1.00  0.00    -0.465 OA
ATOM     22  C   UNL     1     127.458 125.332 128.964  1.00  0.00    +0.282 C 
ENDBRANCH  19  21
ENDBRANCH  17  19
ENDBRANCH   1  13
TORSDOF 7
ENDMDL
MODEL 13
REMARK VINA RESULT:    -6.291      3.023      4.780
REMARK INTER + INTRA:         -11.386
REMARK INTER:                 -11.193
REMARK INTRA:                  -0.193
REMARK UNBOUND:                -2.521
REMARK SMILES COC(=O)c1cccc(CC[N@H+](C)Cc2ccccc2)c1
REMARK SMILES IDX 10 1 11 2 12 3 13 4 14 6 15 7 16 8 20 9 17 10 19 11 18 12
REMARK SMILES IDX 9 13 8 14 21 15 7 16 5 17 6 18 3 19 4 20 2 21 1 22
REMARK H PARENT 12 5
REMARK INDEX MAP 4 1 3 2 2 3 1 4 25 5 15 6 16 7 17 8 21 9 18 10 20 11 19 12
REMARK INDEX MAP 5 13 6 14 10 15 7 16 9 17 8 18 11 19 12 20 13 21 14 22
ROOT
ATOM      1  C   UNL     1     131.869 123.605 125.780  1.00  0.00    +0.097 C 
ENDROOT
BRANCH   1   2
ATOM      2  C   UNL     1     131.841 125.142 125.783  1.00  0.00    +0.267 C 
BRANCH   2   3
ATOM      3  N   UNL     1     130.893 125.776 124.784  1.00  0.00    -0.333 N 
ATOM      4  C   UNL     1     131.538 126.166 123.484  1.00  0.00    +0.333 C 
ATOM      5  H   UNL     1     130.235 125.027 124.536  1.00  0.00    +0.348 HD
BRANCH   3   6
ATOM      6  C   UNL     1     130.008 126.866 125.357  1.00  0.00    +0.298 C 
BRANCH   6   7
ATOM      7  C   UNL     1     129.328 127.673 124.282  1.00  0.00    +0.006 A 
ATOM      8  C   UNL     1     128.245 127.141 123.567  1.00  0.00    +0.009 A 
ATOM      9  C   UNL     1     129.753 128.981 123.999  1.00  0.00    +0.009 A 
ATOM     10  C   UNL     1     127.598 127.903 122.593  1.00  0.00    +0.001 A 
ATOM     11  C   UNL     1     129.102 129.739 123.025  1.00  0.00    +0.001 A 
ATOM     12  C   UNL     1     128.025 129.201 122.325  1.00  0.00    +0.000 A 
ENDBRANCH   6   7
ENDBRANCH   3   6
ENDBRANCH   2   3
ENDBRANCH   1   2
BRANCH   1  13
ATOM     13  C   UNL     1     133.115 122.976 125.209  1.00  0.00    -0.042 A 
ATOM     14  C   UNL     1     133.645 121.809 125.778  1.00  0.00    +0.004 A 
ATOM     15  C   UNL     1     133.784 123.564 124.121  1.00  0.00    +0.019 A 
ATOM     16  C   UNL     1     134.794 121.221 125.251  1.00  0.00    +0.001 A 
ATOM     17  C   UNL     1     134.939 122.974 123.584  1.00  0.00    +0.060 A 
ATOM     18  C   UNL     1     135.436 121.795 124.154  1.00  0.00    +0.016 A 
BRANCH  17  19
ATOM     19  C   UNL     1     135.669 123.554 122.423  1.00  0.00    +0.337 C 
ATOM     20  O   UNL     1     136.536 122.956 121.808  1.00  0.00    -0.246 OA
BRANCH  19  21
ATOM     21  O   UNL     1     135.215 124.803 122.152  1.00  0.00    -0.465 OA
ATOM     22  C   UNL     1     136.156 125.615 121.444  1.00  0.00    +0.282 C 
ENDBRANCH  19  21
ENDBRANCH  17  19
ENDBRANCH   1  13
TORSDOF 7
ENDMDL
MODEL 14
REMARK VINA RESULT:    -6.269      3.312      5.829
REMARK INTER + INTRA:         -11.354
REMARK INTER:                 -10.359
REMARK INTRA:                  -0.995
REMARK UNBOUND:                -2.521
REMARK SMILES COC(=O)c1cccc(CC[N@H+](C)Cc2ccccc2)c1
REMARK SMILES IDX 10 1 11 2 12 3 13 4 14 6 15 7 16 8 20 9 17 10 19 11 18 12
REMARK SMILES IDX 9 13 8 14 21 15 7 16 5 17 6 18 3 19 4 20 2 21 1 22
REMARK H PARENT 12 5
REMARK INDEX MAP 4 1 3 2 2 3 1 4 25 5 15 6 16 7 17 8 21 9 18 10 20 11 19 12
REMARK INDEX MAP 5 13 6 14 10 15 7 16 9 17 8 18 11 19 12 20 13 21 14 22
ROOT
ATOM      1  C   UNL     1     132.303 122.431 126.295  1.00  0.00    +0.097 C 
ENDROOT
BRANCH   1   2
ATOM      2  C   UNL     1     133.812 122.704 126.389  1.00  0.00    +0.267 C 
BRANCH   2   3
ATOM      3  N   UNL     1     134.542 122.789 125.064  1.00  0.00    -0.333 N 
ATOM      4  C   UNL     1     135.308 121.548 124.702  1.00  0.00    +0.333 C 
ATOM      5  H   UNL     1     133.796 122.850 124.359  1.00  0.00    +0.348 HD
BRANCH   3   6
ATOM      6  C   UNL     1     135.343 124.060 124.863  1.00  0.00    +0.298 C 
BRANCH   6   7
ATOM      7  C   UNL     1     134.853 124.865 123.687  1.00  0.00    +0.006 A 
ATOM      8  C   UNL     1     135.627 125.911 123.166  1.00  0.00    +0.009 A 
ATOM      9  C   UNL     1     133.623 124.561 123.082  1.00  0.00    +0.009 A 
ATOM     10  C   UNL     1     135.184 126.634 122.057  1.00  0.00    +0.001 A 
ATOM     11  C   UNL     1     133.184 125.286 121.974  1.00  0.00    +0.001 A 
ATOM     12  C   UNL     1     133.965 126.320 121.461  1.00  0.00    +0.000 A 
ENDBRANCH   6   7
ENDBRANCH   3   6
ENDBRANCH   2   3
ENDBRANCH   1   2
BRANCH   1  13
ATOM     13  C   UNL     1     131.406 123.586 126.670  1.00  0.00    -0.042 A 
ATOM     14  C   UNL     1     130.177 123.352 127.301  1.00  0.00    +0.004 A 
ATOM     15  C   UNL     1     131.771 124.908 126.364  1.00  0.00    +0.019 A 
ATOM     16  C   UNL     1     129.346 124.415 127.653  1.00  0.00    +0.001 A 
ATOM     17  C   UNL     1     130.940 125.983 126.719  1.00  0.00    +0.060 A 
ATOM     18  C   UNL     1     129.728 125.726 127.371  1.00  0.00    +0.016 A 
BRANCH  17  19
ATOM     19  C   UNL     1     131.294 127.399 126.428  1.00  0.00    +0.337 C 
ATOM     20  O   UNL     1     131.886 128.120 127.216  1.00  0.00    -0.246 OA
BRANCH  19  21
ATOM     21  O   UNL     1     130.890 127.744 125.180  1.00  0.00    -0.465 OA
ATOM     22  C   UNL     1     129.729 128.579 125.163  1.00  0.00    +0.282 C 
ENDBRANCH  19  21
ENDBRANCH  17  19
ENDBRANCH   1  13
TORSDOF 7
ENDMDL
MODEL 15
REMARK VINA RESULT:    -6.209      3.048      4.138
REMARK INTER + INTRA:         -11.271
REMARK INTER:                 -10.671
REMARK INTRA:                  -0.600
REMARK UNBOUND:                -2.521
REMARK SMILES COC(=O)c1cccc(CC[N@H+](C)Cc2ccccc2)c1
REMARK SMILES IDX 10 1 11 2 12 3 13 4 14 6 15 7 16 8 20 9 17 10 19 11 18 12
REMARK SMILES IDX 9 13 8 14 21 15 7 16 5 17 6 18 3 19 4 20 2 21 1 22
REMARK H PARENT 12 5
REMARK INDEX MAP 4 1 3 2 2 3 1 4 25 5 15 6 16 7 17 8 21 9 18 10 20 11 19 12
REMARK INDEX MAP 5 13 6 14 10 15 7 16 9 17 8 18 11 19 12 20 13 21 14 22
ROOT
ATOM      1  C   UNL     1     132.391 125.387 124.010  1.00  0.00    +0.097 C 
ENDROOT
BRANCH   1   2
ATOM      2  C   UNL     1     132.446 126.050 125.395  1.00  0.00    +0.267 C 
BRANCH   2   3
ATOM      3  N   UNL     1     131.359 127.070 125.672  1.00  0.00    -0.333 N 
ATOM      4  C   UNL     1     131.419 127.676 127.046  1.00  0.00    +0.333 C 
ATOM      5  H   UNL     1     131.564 127.849 125.033  1.00  0.00    +0.348 HD
BRANCH   3   6
ATOM      6  C   UNL     1     129.963 126.629 125.278  1.00  0.00    +0.298 C 
BRANCH   6   7
ATOM      7  C   UNL     1     129.322 127.574 124.295  1.00  0.00    +0.006 A 
ATOM      8  C   UNL     1     129.884 128.834 124.045  1.00  0.00    +0.009 A 
ATOM      9  C   UNL     1     128.165 127.194 123.596  1.00  0.00    +0.009 A 
ATOM     10  C   UNL     1     129.305 129.694 123.111  1.00  0.00    +0.001 A 
ATOM     11  C   UNL     1     127.589 128.057 122.662  1.00  0.00    +0.001 A 
ATOM     12  C   UNL     1     128.161 129.304 122.419  1.00  0.00    +0.000 A 
ENDBRANCH   6   7
ENDBRANCH   3   6
ENDBRANCH   2   3
ENDBRANCH   1   2
BRANCH   1  13
ATOM     13  C   UNL     1     133.646 125.501 123.181  1.00  0.00    -0.042 A 
ATOM     14  C   UNL     1     134.752 126.215 123.665  1.00  0.00    +0.004 A 
ATOM     15  C   UNL     1     133.718 124.925 121.901  1.00  0.00    +0.019 A 
ATOM     16  C   UNL     1     135.917 126.320 122.904  1.00  0.00    +0.001 A 
ATOM     17  C   UNL     1     134.889 125.024 121.133  1.00  0.00    +0.060 A 
ATOM     18  C   UNL     1     135.990 125.721 121.647  1.00  0.00    +0.016 A 
BRANCH  17  19
ATOM     19  C   UNL     1     135.014 124.416 119.780  1.00  0.00    +0.337 C 
ATOM     20  O   UNL     1     135.916 123.658 119.464  1.00  0.00    -0.246 OA
BRANCH  19  21
ATOM     21  O   UNL     1     133.985 124.806 118.987  1.00  0.00    -0.465 OA
ATOM     22  C   UNL     1     134.084 124.329 117.641  1.00  0.00    +0.282 C 
ENDBRANCH  19  21
ENDBRANCH  17  19
ENDBRANCH   1  13
TORSDOF 7
ENDMDL
MODEL 16
REMARK VINA RESULT:    -6.205      4.124      6.998
REMARK INTER + INTRA:         -11.265
REMARK INTER:                 -10.699
REMARK INTRA:                  -0.566
REMARK UNBOUND:                -2.521
REMARK SMILES COC(=O)c1cccc(CC[N@H+](C)Cc2ccccc2)c1
REMARK SMILES IDX 10 1 11 2 12 3 13 4 14 6 15 7 16 8 20 9 17 10 19 11 18 12
REMARK SMILES IDX 9 13 8 14 21 15 7 16 5 17 6 18 3 19 4 20 2 21 1 22
REMARK H PARENT 12 5
REMARK INDEX MAP 4 1 3 2 2 3 1 4 25 5 15 6 16 7 17 8 21 9 18 10 20 11 19 12
REMARK INDEX MAP 5 13 6 14 10 15 7 16 9 17 8 18 11 19 12 20 13 21 14 22
ROOT
ATOM      1  C   UNL     1     131.460 123.271 126.466  1.00  0.00    +0.097 C 
ENDROOT
BRANCH   1   2
ATOM      2  C   UNL     1     132.894 123.763 126.217  1.00  0.00    +0.267 C 
BRANCH   2   3
ATOM      3  N   UNL     1     133.285 123.920 124.761  1.00  0.00    -0.333 N 
ATOM      4  C   UNL     1     132.154 123.709 123.794  1.00  0.00    +0.333 C 
ATOM      5  H   UNL     1     133.532 124.912 124.662  1.00  0.00    +0.348 HD
BRANCH   3   6
ATOM      6  C   UNL     1     134.550 123.184 124.363  1.00  0.00    +0.298 C 
BRANCH   6   7
ATOM      7  C   UNL     1     135.141 123.716 123.083  1.00  0.00    +0.006 A 
ATOM      8  C   UNL     1     135.558 125.052 122.991  1.00  0.00    +0.009 A 
ATOM      9  C   UNL     1     135.306 122.874 121.972  1.00  0.00    +0.009 A 
ATOM     10  C   UNL     1     136.135 125.533 121.815  1.00  0.00    +0.001 A 
ATOM     11  C   UNL     1     135.882 123.360 120.798  1.00  0.00    +0.001 A 
ATOM     12  C   UNL     1     136.298 124.687 120.721  1.00  0.00    +0.000 A 
ENDBRANCH   6   7
ENDBRANCH   3   6
ENDBRANCH   2   3
ENDBRANCH   1   2
BRANCH   1  13
ATOM     13  C   UNL     1     130.506 124.296 127.026  1.00  0.00    -0.042 A 
ATOM     14  C   UNL     1     129.358 123.890 127.723  1.00  0.00    +0.004 A 
ATOM     15  C   UNL     1     130.731 125.670 126.834  1.00  0.00    +0.019 A 
ATOM     16  C   UNL     1     128.475 124.834 128.247  1.00  0.00    +0.001 A 
ATOM     17  C   UNL     1     129.847 126.624 127.362  1.00  0.00    +0.060 A 
ATOM     18  C   UNL     1     128.721 126.196 128.075  1.00  0.00    +0.016 A 
BRANCH  17  19
ATOM     19  C   UNL     1     130.056 128.089 127.196  1.00  0.00    +0.337 C 
ATOM     20  O   UNL     1     129.174 128.859 126.854  1.00  0.00    -0.246 OA
BRANCH  19  21
ATOM     21  O   UNL     1     131.336 128.424 127.499  1.00  0.00    -0.465 OA
ATOM     22  C   UNL     1     131.553 128.658 128.893  1.00  0.00    +0.282 C 
ENDBRANCH  19  21
ENDBRANCH  17  19
ENDBRANCH   1  13
TORSDOF 7
ENDMDL
MODEL 17
REMARK VINA RESULT:    -6.123      4.408      6.973
REMARK INTER + INTRA:         -11.149
REMARK INTER:                 -10.616
REMARK INTRA:                  -0.533
REMARK UNBOUND:                -2.521
REMARK SMILES COC(=O)c1cccc(CC[N@H+](C)Cc2ccccc2)c1
REMARK SMILES IDX 10 1 11 2 12 3 13 4 14 6 15 7 16 8 20 9 17 10 19 11 18 12
REMARK SMILES IDX 9 13 8 14 21 15 7 16 5 17 6 18 3 19 4 20 2 21 1 22
REMARK H PARENT 12 5
REMARK INDEX MAP 4 1 3 2 2 3 1 4 25 5 15 6 16 7 17 8 21 9 18 10 20 11 19 12
REMARK INDEX MAP 5 13 6 14 10 15 7 16 9 17 8 18 11 19 12 20 13 21 14 22
ROOT
ATOM      1  C   UNL     1     132.435 123.398 125.009  1.00  0.00    +0.097 C 
ENDROOT
BRANCH   1   2
ATOM      2  C   UNL     1     133.956 123.615 125.071  1.00  0.00    +0.267 C 
BRANCH   2   3
ATOM      3  N   UNL     1     134.761 122.874 124.023  1.00  0.00    -0.333 N 
ATOM      4  C   UNL     1     135.340 121.571 124.498  1.00  0.00    +0.333 C 
ATOM      5  H   UNL     1     134.075 122.609 123.305  1.00  0.00    +0.348 HD
BRANCH   3   6
ATOM      6  C   UNL     1     135.764 123.730 123.274  1.00  0.00    +0.298 C 
BRANCH   6   7
ATOM      7  C   UNL     1     135.277 124.112 121.900  1.00  0.00    +0.006 A 
ATOM      8  C   UNL     1     134.339 125.141 121.737  1.00  0.00    +0.009 A 
ATOM      9  C   UNL     1     135.775 123.457 120.763  1.00  0.00    +0.009 A 
ATOM     10  C   UNL     1     133.913 125.513 120.461  1.00  0.00    +0.001 A 
ATOM     11  C   UNL     1     135.346 123.833 119.488  1.00  0.00    +0.001 A 
ATOM     12  C   UNL     1     134.418 124.861 119.339  1.00  0.00    +0.000 A 
ENDBRANCH   6   7
ENDBRANCH   3   6
ENDBRANCH   2   3
ENDBRANCH   1   2
BRANCH   1  13
ATOM     13  C   UNL     1     131.611 124.297 125.898  1.00  0.00    -0.042 A 
ATOM     14  C   UNL     1     131.968 125.642 126.071  1.00  0.00    +0.004 A 
ATOM     15  C   UNL     1     130.495 123.796 126.590  1.00  0.00    +0.019 A 
ATOM     16  C   UNL     1     131.207 126.478 126.888  1.00  0.00    +0.001 A 
ATOM     17  C   UNL     1     129.724 124.634 127.411  1.00  0.00    +0.060 A 
ATOM     18  C   UNL     1     130.085 125.980 127.550  1.00  0.00    +0.016 A 
BRANCH  17  19
ATOM     19  C   UNL     1     128.525 124.149 128.149  1.00  0.00    +0.337 C 
ATOM     20  O   UNL     1     128.205 122.974 128.214  1.00  0.00    -0.246 OA
BRANCH  19  21
ATOM     21  O   UNL     1     127.880 125.186 128.741  1.00  0.00    -0.465 OA
ATOM     22  C   UNL     1     127.103 124.804 129.880  1.00  0.00    +0.282 C 
ENDBRANCH  19  21
ENDBRANCH  17  19
ENDBRANCH   1  13
TORSDOF 7
ENDMDL
MODEL 18
REMARK VINA RESULT:    -6.105      3.009      5.546
REMARK INTER + INTRA:         -11.124
REMARK INTER:                  -9.934
REMARK INTRA:                  -1.189
REMARK UNBOUND:                -2.521
REMARK SMILES COC(=O)c1cccc(CC[N@H+](C)Cc2ccccc2)c1
REMARK SMILES IDX 10 1 11 2 12 3 13 4 14 6 15 7 16 8 20 9 17 10 19 11 18 12
REMARK SMILES IDX 9 13 8 14 21 15 7 16 5 17 6 18 3 19 4 20 2 21 1 22
REMARK H PARENT 12 5
REMARK INDEX MAP 4 1 3 2 2 3 1 4 25 5 15 6 16 7 17 8 21 9 18 10 20 11 19 12
REMARK INDEX MAP 5 13 6 14 10 15 7 16 9 17 8 18 11 19 12 20 13 21 14 22
ROOT
ATOM      1  C   UNL     1     135.529 126.652 122.956  1.00  0.00    +0.097 C 
ENDROOT
BRANCH   1   2
ATOM      2  C   UNL     1     135.999 126.999 124.377  1.00  0.00    +0.267 C 
BRANCH   2   3
ATOM      3  N   UNL     1     136.753 125.899 125.099  1.00  0.00    -0.333 N 
ATOM      4  C   UNL     1     138.090 126.322 125.641  1.00  0.00    +0.333 C 
ATOM      5  H   UNL     1     136.186 125.697 125.932  1.00  0.00    +0.348 HD
BRANCH   3   6
ATOM      6  C   UNL     1     136.805 124.576 124.359  1.00  0.00    +0.298 C 
BRANCH   6   7
ATOM      7  C   UNL     1     135.962 123.518 125.022  1.00  0.00    +0.006 A 
ATOM      8  C   UNL     1     135.780 122.267 124.415  1.00  0.00    +0.009 A 
ATOM      9  C   UNL     1     135.367 123.763 126.270  1.00  0.00    +0.009 A 
ATOM     10  C   UNL     1     135.024 121.279 125.047  1.00  0.00    +0.001 A 
ATOM     11  C   UNL     1     134.612 122.771 126.898  1.00  0.00    +0.001 A 
ATOM     12  C   UNL     1     134.443 121.530 126.287  1.00  0.00    +0.000 A 
ENDBRANCH   6   7
ENDBRANCH   3   6
ENDBRANCH   2   3
ENDBRANCH   1   2
BRANCH   1  13
ATOM     13  C   UNL     1     134.192 125.961 122.861  1.00  0.00    -0.042 A 
ATOM     14  C   UNL     1     133.751 125.437 121.637  1.00  0.00    +0.004 A 
ATOM     15  C   UNL     1     133.353 125.859 123.984  1.00  0.00    +0.019 A 
ATOM     16  C   UNL     1     132.517 124.794 121.544  1.00  0.00    +0.001 A 
ATOM     17  C   UNL     1     132.112 125.209 123.897  1.00  0.00    +0.060 A 
ATOM     18  C   UNL     1     131.703 124.673 122.670  1.00  0.00    +0.016 A 
BRANCH  17  19
ATOM     19  C   UNL     1     131.199 125.065 125.065  1.00  0.00    +0.337 C 
ATOM     20  O   UNL     1     130.520 124.072 125.268  1.00  0.00    -0.246 OA
BRANCH  19  21
ATOM     21  O   UNL     1     131.260 126.167 125.854  1.00  0.00    -0.465 OA
ATOM     22  C   UNL     1     130.524 126.040 127.074  1.00  0.00    +0.282 C 
ENDBRANCH  19  21
ENDBRANCH  17  19
ENDBRANCH   1  13
TORSDOF 7
ENDMDL
MODEL 19
REMARK VINA RESULT:    -6.035      4.491      7.390
REMARK INTER + INTRA:         -11.025
REMARK INTER:                 -10.422
REMARK INTRA:                  -0.604
REMARK UNBOUND:                -2.521
REMARK SMILES COC(=O)c1cccc(CC[N@H+](C)Cc2ccccc2)c1
REMARK SMILES IDX 10 1 11 2 12 3 13 4 14 6 15 7 16 8 20 9 17 10 19 11 18 12
REMARK SMILES IDX 9 13 8 14 21 15 7 16 5 17 6 18 3 19 4 20 2 21 1 22
REMARK H PARENT 12 5
REMARK INDEX MAP 4 1 3 2 2 3 1 4 25 5 15 6 16 7 17 8 21 9 18 10 20 11 19 12
REMARK INDEX MAP 5 13 6 14 10 15 7 16 9 17 8 18 11 19 12 20 13 21 14 22
ROOT
ATOM      1  C   UNL     1     132.653 126.524 125.363  1.00  0.00    +0.097 C 
ENDROOT
BRANCH   1   2
ATOM      2  C   UNL     1     132.476 125.477 124.252  1.00  0.00    +0.267 C 
BRANCH   2   3
ATOM      3  N   UNL     1     133.737 125.117 123.491  1.00  0.00    -0.333 N 
ATOM      4  C   UNL     1     134.055 126.043 122.352  1.00  0.00    +0.333 C 
ATOM      5  H   UNL     1     134.499 125.260 124.166  1.00  0.00    +0.348 HD
BRANCH   3   6
ATOM      6  C   UNL     1     133.851 123.652 123.114  1.00  0.00    +0.298 C 
BRANCH   6   7
ATOM      7  C   UNL     1     134.512 122.834 124.193  1.00  0.00    +0.006 A 
ATOM      8  C   UNL     1     133.756 122.292 125.242  1.00  0.00    +0.009 A 
ATOM      9  C   UNL     1     135.893 122.583 124.148  1.00  0.00    +0.009 A 
ATOM     10  C   UNL     1     134.368 121.509 126.222  1.00  0.00    +0.001 A 
ATOM     11  C   UNL     1     136.500 121.800 125.130  1.00  0.00    +0.001 A 
ATOM     12  C   UNL     1     135.737 121.262 126.164  1.00  0.00    +0.000 A 
ENDBRANCH   6   7
ENDBRANCH   3   6
ENDBRANCH   2   3
ENDBRANCH   1   2
BRANCH   1  13
ATOM     13  C   UNL     1     131.579 126.540 126.422  1.00  0.00    -0.042 A 
ATOM     14  C   UNL     1     131.389 127.676 127.222  1.00  0.00    +0.004 A 
ATOM     15  C   UNL     1     130.776 125.409 126.649  1.00  0.00    +0.019 A 
ATOM     16  C   UNL     1     130.395 127.697 128.200  1.00  0.00    +0.001 A 
ATOM     17  C   UNL     1     129.771 125.426 127.629  1.00  0.00    +0.060 A 
ATOM     18  C   UNL     1     129.583 126.581 128.399  1.00  0.00    +0.016 A 
BRANCH  17  19
ATOM     19  C   UNL     1     128.887 124.257 127.891  1.00  0.00    +0.337 C 
ATOM     20  O   UNL     1     129.263 123.099 127.813  1.00  0.00    -0.246 OA
BRANCH  19  21
ATOM     21  O   UNL     1     127.644 124.671 128.243  1.00  0.00    -0.465 OA
ATOM     22  C   UNL     1     127.096 123.960 129.357  1.00  0.00    +0.282 C 
ENDBRANCH  19  21
ENDBRANCH  17  19
ENDBRANCH   1  13
TORSDOF 7
ENDMDL
MODEL 20
REMARK VINA RESULT:    -6.010      3.218      5.214
REMARK INTER + INTRA:         -10.990
REMARK INTER:                 -10.604
REMARK INTRA:                  -0.385
REMARK UNBOUND:                -2.521
REMARK SMILES COC(=O)c1cccc(CC[N@H+](C)Cc2ccccc2)c1
REMARK SMILES IDX 10 1 11 2 12 3 13 4 14 6 15 7 16 8 20 9 17 10 19 11 18 12
REMARK SMILES IDX 9 13 8 14 21 15 7 16 5 17 6 18 3 19 4 20 2 21 1 22
REMARK H PARENT 12 5
REMARK INDEX MAP 4 1 3 2 2 3 1 4 25 5 15 6 16 7 17 8 21 9 18 10 20 11 19 12
REMARK INDEX MAP 5 13 6 14 10 15 7 16 9 17 8 18 11 19 12 20 13 21 14 22
ROOT
ATOM      1  C   UNL     1     131.342 123.173 125.425  1.00  0.00    +0.097 C 
ENDROOT
BRANCH   1   2
ATOM      2  C   UNL     1     131.280 124.660 125.805  1.00  0.00    +0.267 C 
BRANCH   2   3
ATOM      3  N   UNL     1     130.562 125.556 124.816  1.00  0.00    -0.333 N 
ATOM      4  C   UNL     1     131.473 126.263 123.852  1.00  0.00    +0.333 C 
ATOM      5  H   UNL     1     130.013 124.912 124.232  1.00  0.00    +0.348 HD
BRANCH   3   6
ATOM      6  C   UNL     1     129.522 126.472 125.431  1.00  0.00    +0.298 C 
BRANCH   6   7
ATOM      7  C   UNL     1     129.957 127.013 126.768  1.00  0.00    +0.006 A 
ATOM      8  C   UNL     1     129.311 126.611 127.945  1.00  0.00    +0.009 A 
ATOM      9  C   UNL     1     131.034 127.910 126.855  1.00  0.00    +0.009 A 
ATOM     10  C   UNL     1     129.737 127.090 129.185  1.00  0.00    +0.001 A 
ATOM     11  C   UNL     1     131.457 128.386 128.097  1.00  0.00    +0.001 A 
ATOM     12  C   UNL     1     130.810 127.974 129.260  1.00  0.00    +0.000 A 
ENDBRANCH   6   7
ENDBRANCH   3   6
ENDBRANCH   2   3
ENDBRANCH   1   2
BRANCH   1  13
ATOM     13  C   UNL     1     132.726 122.602 125.243  1.00  0.00    -0.042 A 
ATOM     14  C   UNL     1     133.095 121.417 125.896  1.00  0.00    +0.004 A 
ATOM     15  C   UNL     1     133.676 123.261 124.445  1.00  0.00    +0.019 A 
ATOM     16  C   UNL     1     134.372 120.883 125.727  1.00  0.00    +0.001 A 
ATOM     17  C   UNL     1     134.962 122.725 124.269  1.00  0.00    +0.060 A 
ATOM     18  C   UNL     1     135.301 121.528 124.912  1.00  0.00    +0.016 A 
BRANCH  17  19
ATOM     19  C   UNL     1     135.995 123.382 123.420  1.00  0.00    +0.337 C 
ATOM     20  O   UNL     1     136.074 123.222 122.213  1.00  0.00    -0.246 OA
BRANCH  19  21
ATOM     21  O   UNL     1     136.792 124.180 124.174  1.00  0.00    -0.465 OA
ATOM     22  C   UNL     1     136.540 125.577 123.995  1.00  0.00    +0.282 C 
ENDBRANCH  19  21
ENDBRANCH  17  19
ENDBRANCH   1  13
TORSDOF 7
ENDMDL
