MODEL 1
REMARK VINA RESULT:    -7.388      0.000      0.000
REMARK INTER + INTRA:         -12.884
REMARK INTER:                 -10.411
REMARK INTRA:                  -2.474
REMARK UNBOUND:                -2.474
REMARK SMILES COC(=O)c1cccc(CC[N@H+](C)Cc2ccccc2)c1
REMARK SMILES IDX 10 1 11 2 12 3 13 4 14 6 15 7 16 8 20 9 17 10 19 11 18 12
REMARK SMILES IDX 9 13 8 14 21 15 7 16 5 17 6 18 3 19 4 20 2 21 1 22
REMARK H PARENT 12 5
REMARK INDEX MAP 4 1 3 2 2 3 1 4 25 5 15 6 16 7 17 8 21 9 18 10 20 11 19 12
REMARK INDEX MAP 5 13 6 14 10 15 7 16 9 17 8 18 11 19 12 20 13 21 14 22
ROOT
ATOM      1  C   UNL     1     136.282 122.262 124.177  1.00  0.00    +0.097 C 
ENDROOT
BRANCH   1   2
ATOM      2  C   UNL     1     135.007 121.536 124.635  1.00  0.00    +0.267 C 
BRANCH   2   3
ATOM      3  N   UNL     1     134.266 122.186 125.786  1.00  0.00    -0.333 N 
ATOM      4  C   UNL     1     134.516 121.542 127.121  1.00  0.00    +0.333 C 
ATOM      5  H   UNL     1     134.679 123.123 125.866  1.00  0.00    +0.348 HD
BRANCH   3   6
ATOM      6  C   UNL     1     132.796 122.452 125.522  1.00  0.00    +0.298 C 
BRANCH   6   7
ATOM      7  C   UNL     1     132.579 123.709 124.721  1.00  0.00    +0.006 A 
ATOM      8  C   UNL     1     132.718 124.970 125.319  1.00  0.00    +0.009 A 
ATOM      9  C   UNL     1     132.259 123.635 123.356  1.00  0.00    +0.009 A 
ATOM     10  C   UNL     1     132.546 126.133 124.566  1.00  0.00    +0.001 A 
ATOM     11  C   UNL     1     132.089 124.800 122.606  1.00  0.00    +0.001 A 
ATOM     12  C   UNL     1     132.235 126.047 123.211  1.00  0.00    +0.000 A 
ENDBRANCH   6   7
ENDBRANCH   3   6
ENDBRANCH   2   3
ENDBRANCH   1   2
BRANCH   1  13
ATOM     13  C   UNL     1     136.065 123.507 123.354  1.00  0.00    -0.042 A 
ATOM     14  C   UNL     1     136.214 124.775 123.933  1.00  0.00    +0.004 A 
ATOM     15  C   UNL     1     135.679 123.419 122.005  1.00  0.00    +0.019 A 
ATOM     16  C   UNL     1     136.018 125.929 123.175  1.00  0.00    +0.001 A 
ATOM     17  C   UNL     1     135.484 124.577 121.236  1.00  0.00    +0.060 A 
ATOM     18  C   UNL     1     135.663 125.833 121.830  1.00  0.00    +0.016 A 
BRANCH  17  19
ATOM     19  C   UNL     1     135.091 124.530 119.801  1.00  0.00    +0.337 C 
ATOM     20  O   UNL     1     134.584 125.469 119.211  1.00  0.00    -0.246 OA
BRANCH  19  21
ATOM     21  O   UNL     1     135.399 123.322 119.264  1.00  0.00    -0.465 OA
ATOM     22  C   UNL     1     134.974 123.173 117.905  1.00  0.00    +0.282 C 
ENDBRANCH  19  21
ENDBRANCH  17  19
ENDBRANCH   1  13
TORSDOF 7
ENDMDL
MODEL 2
REMARK VINA RESULT:    -7.271      3.311      6.204
REMARK INTER + INTRA:         -12.721
REMARK INTER:                 -10.491
REMARK INTRA:                  -2.229
REMARK UNBOUND:                -2.474
REMARK SMILES COC(=O)c1cccc(CC[N@H+](C)Cc2ccccc2)c1
REMARK SMILES IDX 10 1 11 2 12 3 13 4 14 6 15 7 16 8 20 9 17 10 19 11 18 12
REMARK SMILES IDX 9 13 8 14 21 15 7 16 5 17 6 18 3 19 4 20 2 21 1 22
REMARK H PARENT 12 5
REMARK INDEX MAP 4 1 3 2 2 3 1 4 25 5 15 6 16 7 17 8 21 9 18 10 20 11 19 12
REMARK INDEX MAP 5 13 6 14 10 15 7 16 9 17 8 18 11 19 12 20 13 21 14 22
ROOT
ATOM      1  C   UNL     1     132.792 125.341 122.293  1.00  0.00    +0.097 C 
ENDROOT
BRANCH   1   2
ATOM      2  C   UNL     1     134.163 124.783 121.879  1.00  0.00    +0.267 C 
BRANCH   2   3
ATOM      3  N   UNL     1     135.280 124.990 122.882  1.00  0.00    -0.333 N 
ATOM      4  C   UNL     1     136.155 126.177 122.593  1.00  0.00    +0.333 C 
ATOM      5  H   UNL     1     134.801 125.225 123.760  1.00  0.00    +0.348 HD
BRANCH   3   6
ATOM      6  C   UNL     1     136.069 123.739 123.217  1.00  0.00    +0.298 C 
BRANCH   6   7
ATOM      7  C   UNL     1     135.570 123.067 124.470  1.00  0.00    +0.006 A 
ATOM      8  C   UNL     1     135.318 123.816 125.629  1.00  0.00    +0.009 A 
ATOM      9  C   UNL     1     135.326 121.685 124.486  1.00  0.00    +0.009 A 
ATOM     10  C   UNL     1     134.825 123.195 126.778  1.00  0.00    +0.001 A 
ATOM     11  C   UNL     1     134.833 121.069 125.637  1.00  0.00    +0.001 A 
ATOM     12  C   UNL     1     134.582 121.824 126.780  1.00  0.00    +0.000 A 
ENDBRANCH   6   7
ENDBRANCH   3   6
ENDBRANCH   2   3
ENDBRANCH   1   2
BRANCH   1  13
ATOM     13  C   UNL     1     132.232 124.802 123.586  1.00  0.00    -0.042 A 
ATOM     14  C   UNL     1     132.064 123.422 123.765  1.00  0.00    +0.004 A 
ATOM     15  C   UNL     1     131.838 125.673 124.617  1.00  0.00    +0.019 A 
ATOM     16  C   UNL     1     131.550 122.919 124.960  1.00  0.00    +0.001 A 
ATOM     17  C   UNL     1     131.324 125.171 125.823  1.00  0.00    +0.060 A 
ATOM     18  C   UNL     1     131.188 123.788 125.989  1.00  0.00    +0.016 A 
BRANCH  17  19
ATOM     19  C   UNL     1     130.910 126.056 126.947  1.00  0.00    +0.337 C 
ATOM     20  O   UNL     1     130.073 125.741 127.777  1.00  0.00    -0.246 OA
BRANCH  19  21
ATOM     21  O   UNL     1     131.605 127.221 126.916  1.00  0.00    -0.465 OA
ATOM     22  C   UNL     1     131.247 128.131 127.960  1.00  0.00    +0.282 C 
ENDBRANCH  19  21
ENDBRANCH  17  19
ENDBRANCH   1  13
TORSDOF 7
ENDMDL
MODEL 3
REMARK VINA RESULT:    -7.125      1.701      3.947
REMARK INTER + INTRA:         -12.514
REMARK INTER:                 -11.634
REMARK INTRA:                  -0.879
REMARK UNBOUND:                -2.474
REMARK SMILES COC(=O)c1cccc(CC[N@H+](C)Cc2ccccc2)c1
REMARK SMILES IDX 10 1 11 2 12 3 13 4 14 6 15 7 16 8 20 9 17 10 19 11 18 12
REMARK SMILES IDX 9 13 8 14 21 15 7 16 5 17 6 18 3 19 4 20 2 21 1 22
REMARK H PARENT 12 5
REMARK INDEX MAP 4 1 3 2 2 3 1 4 25 5 15 6 16 7 17 8 21 9 18 10 20 11 19 12
REMARK INDEX MAP 5 13 6 14 10 15 7 16 9 17 8 18 11 19 12 20 13 21 14 22
ROOT
ATOM      1  C   UNL     1     134.527 126.516 121.852  1.00  0.00    +0.097 C 
ENDROOT
BRANCH   1   2
ATOM      2  C   UNL     1     134.405 126.271 123.364  1.00  0.00    +0.267 C 
BRANCH   2   3
ATOM      3  N   UNL     1     133.401 125.210 123.772  1.00  0.00    -0.333 N 
ATOM      4  C   UNL     1     132.001 125.470 123.290  1.00  0.00    +0.333 C 
ATOM      5  H   UNL     1     133.698 124.364 123.270  1.00  0.00    +0.348 HD
BRANCH   3   6
ATOM      6  C   UNL     1     133.461 124.811 125.234  1.00  0.00    +0.298 C 
BRANCH   6   7
ATOM      7  C   UNL     1     134.238 123.538 125.446  1.00  0.00    +0.006 A 
ATOM      8  C   UNL     1     134.585 122.724 124.358  1.00  0.00    +0.009 A 
ATOM      9  C   UNL     1     134.647 123.162 126.736  1.00  0.00    +0.009 A 
ATOM     10  C   UNL     1     135.332 121.561 124.556  1.00  0.00    +0.001 A 
ATOM     11  C   UNL     1     135.393 121.999 126.928  1.00  0.00    +0.001 A 
ATOM     12  C   UNL     1     135.737 121.201 125.839  1.00  0.00    +0.000 A 
ENDBRANCH   6   7
ENDBRANCH   3   6
ENDBRANCH   2   3
ENDBRANCH   1   2
BRANCH   1  13
ATOM     13  C   UNL     1     134.973 125.331 121.032  1.00  0.00    -0.042 A 
ATOM     14  C   UNL     1     135.915 124.429 121.545  1.00  0.00    +0.004 A 
ATOM     15  C   UNL     1     134.478 125.130 119.732  1.00  0.00    +0.019 A 
ATOM     16  C   UNL     1     136.327 123.329 120.792  1.00  0.00    +0.001 A 
ATOM     17  C   UNL     1     134.887 124.023 118.971  1.00  0.00    +0.060 A 
ATOM     18  C   UNL     1     135.811 123.121 119.514  1.00  0.00    +0.016 A 
BRANCH  17  19
ATOM     19  C   UNL     1     134.377 123.763 117.596  1.00  0.00    +0.337 C 
ATOM     20  O   UNL     1     133.223 123.964 117.258  1.00  0.00    -0.246 OA
BRANCH  19  21
ATOM     21  O   UNL     1     135.374 123.304 116.799  1.00  0.00    -0.465 OA
ATOM     22  C   UNL     1     135.029 122.122 116.070  1.00  0.00    +0.282 C 
ENDBRANCH  19  21
ENDBRANCH  17  19
ENDBRANCH   1  13
TORSDOF 7
ENDMDL
MODEL 4
REMARK VINA RESULT:    -6.984      2.989      4.245
REMARK INTER + INTRA:         -12.316
REMARK INTER:                 -11.717
REMARK INTRA:                  -0.598
REMARK UNBOUND:                -2.474
REMARK SMILES COC(=O)c1cccc(CC[N@H+](C)Cc2ccccc2)c1
REMARK SMILES IDX 10 1 11 2 12 3 13 4 14 6 15 7 16 8 20 9 17 10 19 11 18 12
REMARK SMILES IDX 9 13 8 14 21 15 7 16 5 17 6 18 3 19 4 20 2 21 1 22
REMARK H PARENT 12 5
REMARK INDEX MAP 4 1 3 2 2 3 1 4 25 5 15 6 16 7 17 8 21 9 18 10 20 11 19 12
REMARK INDEX MAP 5 13 6 14 10 15 7 16 9 17 8 18 11 19 12 20 13 21 14 22
ROOT
ATOM      1  C   UNL     1     132.386 125.958 123.018  1.00  0.00    +0.097 C 
ENDROOT
BRANCH   1   2
ATOM      2  C   UNL     1     132.550 126.226 124.522  1.00  0.00    +0.267 C 
BRANCH   2   3
ATOM      3  N   UNL     1     131.541 127.182 125.126  1.00  0.00    -0.333 N 
ATOM      4  C   UNL     1     131.886 127.645 126.513  1.00  0.00    +0.333 C 
ATOM      5  H   UNL     1     131.602 128.027 124.545  1.00  0.00    +0.348 HD
BRANCH   3   6
ATOM      6  C   UNL     1     130.095 126.745 124.989  1.00  0.00    +0.298 C 
BRANCH   6   7
ATOM      7  C   UNL     1     129.318 127.628 124.048  1.00  0.00    +0.006 A 
ATOM      8  C   UNL     1     129.709 128.957 123.831  1.00  0.00    +0.009 A 
ATOM      9  C   UNL     1     128.207 127.123 123.355  1.00  0.00    +0.009 A 
ATOM     10  C   UNL     1     129.005 129.763 122.934  1.00  0.00    +0.001 A 
ATOM     11  C   UNL     1     127.506 127.932 122.459  1.00  0.00    +0.001 A 
ATOM     12  C   UNL     1     127.907 129.249 122.248  1.00  0.00    +0.000 A 
ENDBRANCH   6   7
ENDBRANCH   3   6
ENDBRANCH   2   3
ENDBRANCH   1   2
BRANCH   1  13
ATOM     13  C   UNL     1     133.666 125.736 122.251  1.00  0.00    -0.042 A 
ATOM     14  C   UNL     1     134.880 126.242 122.736  1.00  0.00    +0.004 A 
ATOM     15  C   UNL     1     133.660 125.048 121.025  1.00  0.00    +0.019 A 
ATOM     16  C   UNL     1     136.067 126.036 122.032  1.00  0.00    +0.001 A 
ATOM     17  C   UNL     1     134.852 124.835 120.314  1.00  0.00    +0.060 A 
ATOM     18  C   UNL     1     136.056 125.329 120.831  1.00  0.00    +0.016 A 
BRANCH  17  19
ATOM     19  C   UNL     1     134.893 124.099 119.021  1.00  0.00    +0.337 C 
ATOM     20  O   UNL     1     135.359 122.978 118.900  1.00  0.00    -0.246 OA
BRANCH  19  21
ATOM     21  O   UNL     1     134.326 124.839 118.035  1.00  0.00    -0.465 OA
ATOM     22  C   UNL     1     133.440 124.093 117.195  1.00  0.00    +0.282 C 
ENDBRANCH  19  21
ENDBRANCH  17  19
ENDBRANCH   1  13
TORSDOF 7
ENDMDL
MODEL 5
REMARK VINA RESULT:    -6.891      1.464      3.709
REMARK INTER + INTRA:         -12.185
REMARK INTER:                 -10.987
REMARK INTRA:                  -1.198
REMARK UNBOUND:                -2.474
REMARK SMILES COC(=O)c1cccc(CC[N@H+](C)Cc2ccccc2)c1
REMARK SMILES IDX 10 1 11 2 12 3 13 4 14 6 15 7 16 8 20 9 17 10 19 11 18 12
REMARK SMILES IDX 9 13 8 14 21 15 7 16 5 17 6 18 3 19 4 20 2 21 1 22
REMARK H PARENT 12 5
REMARK INDEX MAP 4 1 3 2 2 3 1 4 25 5 15 6 16 7 17 8 21 9 18 10 20 11 19 12
REMARK INDEX MAP 5 13 6 14 10 15 7 16 9 17 8 18 11 19 12 20 13 21 14 22
ROOT
ATOM      1  C   UNL     1     131.941 125.931 123.042  1.00  0.00    +0.097 C 
ENDROOT
BRANCH   1   2
ATOM      2  C   UNL     1     131.868 125.716 124.562  1.00  0.00    +0.267 C 
BRANCH   2   3
ATOM      3  N   UNL     1     132.341 124.361 125.051  1.00  0.00    -0.333 N 
ATOM      4  C   UNL     1     131.233 123.387 125.332  1.00  0.00    +0.333 C 
ATOM      5  H   UNL     1     132.848 123.958 124.253  1.00  0.00    +0.348 HD
BRANCH   3   6
ATOM      6  C   UNL     1     133.379 124.414 126.156  1.00  0.00    +0.298 C 
BRANCH   6   7
ATOM      7  C   UNL     1     134.445 123.363 125.988  1.00  0.00    +0.006 A 
ATOM      8  C   UNL     1     134.973 123.078 124.721  1.00  0.00    +0.009 A 
ATOM      9  C   UNL     1     134.943 122.672 127.104  1.00  0.00    +0.009 A 
ATOM     10  C   UNL     1     135.983 122.126 124.574  1.00  0.00    +0.001 A 
ATOM     11  C   UNL     1     135.953 121.721 126.953  1.00  0.00    +0.001 A 
ATOM     12  C   UNL     1     136.473 121.451 125.689  1.00  0.00    +0.000 A 
ENDBRANCH   6   7
ENDBRANCH   3   6
ENDBRANCH   2   3
ENDBRANCH   1   2
BRANCH   1  13
ATOM     13  C   UNL     1     133.309 125.776 122.425  1.00  0.00    -0.042 A 
ATOM     14  C   UNL     1     134.442 126.283 123.077  1.00  0.00    +0.004 A 
ATOM     15  C   UNL     1     133.467 125.151 121.176  1.00  0.00    +0.019 A 
ATOM     16  C   UNL     1     135.709 126.139 122.512  1.00  0.00    +0.001 A 
ATOM     17  C   UNL     1     134.741 125.000 120.605  1.00  0.00    +0.060 A 
ATOM     18  C   UNL     1     135.861 125.493 121.286  1.00  0.00    +0.016 A 
BRANCH  17  19
ATOM     19  C   UNL     1     134.956 124.331 119.292  1.00  0.00    +0.337 C 
ATOM     20  O   UNL     1     135.651 123.339 119.150  1.00  0.00    -0.246 OA
BRANCH  19  21
ATOM     21  O   UNL     1     134.260 124.965 118.316  1.00  0.00    -0.465 OA
ATOM     22  C   UNL     1     133.652 124.076 117.375  1.00  0.00    +0.282 C 
ENDBRANCH  19  21
ENDBRANCH  17  19
ENDBRANCH   1  13
TORSDOF 7
ENDMDL
MODEL 6
REMARK VINA RESULT:    -6.802      2.128      3.685
REMARK INTER + INTRA:         -12.059
REMARK INTER:                 -11.363
REMARK INTRA:                  -0.696
REMARK UNBOUND:                -2.474
REMARK SMILES COC(=O)c1cccc(CC[N@H+](C)Cc2ccccc2)c1
REMARK SMILES IDX 10 1 11 2 12 3 13 4 14 6 15 7 16 8 20 9 17 10 19 11 18 12
REMARK SMILES IDX 9 13 8 14 21 15 7 16 5 17 6 18 3 19 4 20 2 21 1 22
REMARK H PARENT 12 5
REMARK INDEX MAP 4 1 3 2 2 3 1 4 25 5 15 6 16 7 17 8 21 9 18 10 20 11 19 12
REMARK INDEX MAP 5 13 6 14 10 15 7 16 9 17 8 18 11 19 12 20 13 21 14 22
ROOT
ATOM      1  C   UNL     1     134.679 126.476 121.637  1.00  0.00    +0.097 C 
ENDROOT
BRANCH   1   2
ATOM      2  C   UNL     1     135.746 126.848 122.679  1.00  0.00    +0.267 C 
BRANCH   2   3
ATOM      3  N   UNL     1     135.397 126.515 124.116  1.00  0.00    -0.333 N 
ATOM      4  C   UNL     1     136.049 127.410 125.132  1.00  0.00    +0.333 C 
ATOM      5  H   UNL     1     134.393 126.717 124.194  1.00  0.00    +0.348 HD
BRANCH   3   6
ATOM      6  C   UNL     1     135.503 125.043 124.467  1.00  0.00    +0.298 C 
BRANCH   6   7
ATOM      7  C   UNL     1     134.163 124.435 124.790  1.00  0.00    +0.006 A 
ATOM      8  C   UNL     1     133.272 124.087 123.764  1.00  0.00    +0.009 A 
ATOM      9  C   UNL     1     133.799 124.185 126.122  1.00  0.00    +0.009 A 
ATOM     10  C   UNL     1     132.044 123.495 124.066  1.00  0.00    +0.001 A 
ATOM     11  C   UNL     1     132.571 123.593 126.419  1.00  0.00    +0.001 A 
ATOM     12  C   UNL     1     131.696 123.247 125.391  1.00  0.00    +0.000 A 
ENDBRANCH   6   7
ENDBRANCH   3   6
ENDBRANCH   2   3
ENDBRANCH   1   2
BRANCH   1  13
ATOM     13  C   UNL     1     134.992 125.274 120.783  1.00  0.00    -0.042 A 
ATOM     14  C   UNL     1     135.955 124.342 121.196  1.00  0.00    +0.004 A 
ATOM     15  C   UNL     1     134.351 125.083 119.547  1.00  0.00    +0.019 A 
ATOM     16  C   UNL     1     136.245 123.226 120.412  1.00  0.00    +0.001 A 
ATOM     17  C   UNL     1     134.637 123.960 118.754  1.00  0.00    +0.060 A 
ATOM     18  C   UNL     1     135.584 123.030 119.199  1.00  0.00    +0.016 A 
BRANCH  17  19
ATOM     19  C   UNL     1     133.970 123.711 117.446  1.00  0.00    +0.337 C 
ATOM     20  O   UNL     1     133.376 124.573 116.820  1.00  0.00    -0.246 OA
BRANCH  19  21
ATOM     21  O   UNL     1     134.144 122.422 117.062  1.00  0.00    -0.465 OA
ATOM     22  C   UNL     1     135.010 122.271 115.934  1.00  0.00    +0.282 C 
ENDBRANCH  19  21
ENDBRANCH  17  19
ENDBRANCH   1  13
TORSDOF 7
ENDMDL
MODEL 7
REMARK VINA RESULT:    -6.735      2.822      5.376
REMARK INTER + INTRA:         -11.964
REMARK INTER:                  -9.918
REMARK INTRA:                  -2.047
REMARK UNBOUND:                -2.474
REMARK SMILES COC(=O)c1cccc(CC[N@H+](C)Cc2ccccc2)c1
REMARK SMILES IDX 10 1 11 2 12 3 13 4 14 6 15 7 16 8 20 9 17 10 19 11 18 12
REMARK SMILES IDX 9 13 8 14 21 15 7 16 5 17 6 18 3 19 4 20 2 21 1 22
REMARK H PARENT 12 5
REMARK INDEX MAP 4 1 3 2 2 3 1 4 25 5 15 6 16 7 17 8 21 9 18 10 20 11 19 12
REMARK INDEX MAP 5 13 6 14 10 15 7 16 9 17 8 18 11 19 12 20 13 21 14 22
ROOT
ATOM      1  C   UNL     1     133.026 122.471 125.263  1.00  0.00    +0.097 C 
ENDROOT
BRANCH   1   2
ATOM      2  C   UNL     1     134.199 122.609 126.246  1.00  0.00    +0.267 C 
BRANCH   2   3
ATOM      3  N   UNL     1     135.575 122.373 125.654  1.00  0.00    -0.333 N 
ATOM      4  C   UNL     1     136.429 121.421 126.443  1.00  0.00    +0.333 C 
ATOM      5  H   UNL     1     135.397 121.890 124.765  1.00  0.00    +0.348 HD
BRANCH   3   6
ATOM      6  C   UNL     1     136.313 123.634 125.246  1.00  0.00    +0.298 C 
BRANCH   6   7
ATOM      7  C   UNL     1     136.092 123.980 123.797  1.00  0.00    +0.006 A 
ATOM      8  C   UNL     1     136.020 122.972 122.825  1.00  0.00    +0.009 A 
ATOM      9  C   UNL     1     135.930 125.318 123.403  1.00  0.00    +0.009 A 
ATOM     10  C   UNL     1     135.785 123.295 121.487  1.00  0.00    +0.001 A 
ATOM     11  C   UNL     1     135.695 125.636 122.065  1.00  0.00    +0.001 A 
ATOM     12  C   UNL     1     135.620 124.625 121.109  1.00  0.00    +0.000 A 
ENDBRANCH   6   7
ENDBRANCH   3   6
ENDBRANCH   2   3
ENDBRANCH   1   2
BRANCH   1  13
ATOM     13  C   UNL     1     132.542 123.757 124.640  1.00  0.00    -0.042 A 
ATOM     14  C   UNL     1     132.471 123.885 123.245  1.00  0.00    +0.004 A 
ATOM     15  C   UNL     1     132.185 124.855 125.441  1.00  0.00    +0.019 A 
ATOM     16  C   UNL     1     132.020 125.070 122.664  1.00  0.00    +0.001 A 
ATOM     17  C   UNL     1     131.727 126.049 124.861  1.00  0.00    +0.060 A 
ATOM     18  C   UNL     1     131.642 126.145 123.467  1.00  0.00    +0.016 A 
BRANCH  17  19
ATOM     19  C   UNL     1     131.325 127.231 125.672  1.00  0.00    +0.337 C 
ATOM     20  O   UNL     1     130.800 128.225 125.197  1.00  0.00    -0.246 OA
BRANCH  19  21
ATOM     21  O   UNL     1     131.603 127.024 126.984  1.00  0.00    -0.465 OA
ATOM     22  C   UNL     1     130.962 127.955 127.860  1.00  0.00    +0.282 C 
ENDBRANCH  19  21
ENDBRANCH  17  19
ENDBRANCH   1  13
TORSDOF 7
ENDMDL
MODEL 8
REMARK VINA RESULT:    -6.733      1.864      3.204
REMARK INTER + INTRA:         -11.962
REMARK INTER:                  -9.679
REMARK INTRA:                  -2.284
REMARK UNBOUND:                -2.474
REMARK SMILES COC(=O)c1cccc(CC[N@H+](C)Cc2ccccc2)c1
REMARK SMILES IDX 10 1 11 2 12 3 13 4 14 6 15 7 16 8 20 9 17 10 19 11 18 12
REMARK SMILES IDX 9 13 8 14 21 15 7 16 5 17 6 18 3 19 4 20 2 21 1 22
REMARK H PARENT 12 5
REMARK INDEX MAP 4 1 3 2 2 3 1 4 25 5 15 6 16 7 17 8 21 9 18 10 20 11 19 12
REMARK INDEX MAP 5 13 6 14 10 15 7 16 9 17 8 18 11 19 12 20 13 21 14 22
ROOT
ATOM      1  C   UNL     1     135.492 121.759 124.928  1.00  0.00    +0.097 C 
ENDROOT
BRANCH   1   2
ATOM      2  C   UNL     1     134.832 122.256 126.224  1.00  0.00    +0.267 C 
BRANCH   2   3
ATOM      3  N   UNL     1     133.454 121.694 126.508  1.00  0.00    -0.333 N 
ATOM      4  C   UNL     1     133.083 120.513 125.657  1.00  0.00    +0.333 C 
ATOM      5  H   UNL     1     133.517 121.319 127.463  1.00  0.00    +0.348 HD
BRANCH   3   6
ATOM      6  C   UNL     1     132.352 122.733 126.594  1.00  0.00    +0.298 C 
BRANCH   6   7
ATOM      7  C   UNL     1     132.401 123.713 125.451  1.00  0.00    +0.006 A 
ATOM      8  C   UNL     1     132.029 123.320 124.157  1.00  0.00    +0.009 A 
ATOM      9  C   UNL     1     132.797 125.041 125.671  1.00  0.00    +0.009 A 
ATOM     10  C   UNL     1     132.047 124.239 123.107  1.00  0.00    +0.001 A 
ATOM     11  C   UNL     1     132.813 125.957 124.618  1.00  0.00    +0.001 A 
ATOM     12  C   UNL     1     132.436 125.556 123.339  1.00  0.00    +0.000 A 
ENDBRANCH   6   7
ENDBRANCH   3   6
ENDBRANCH   2   3
ENDBRANCH   1   2
BRANCH   1  13
ATOM     13  C   UNL     1     135.553 122.760 123.801  1.00  0.00    -0.042 A 
ATOM     14  C   UNL     1     135.270 122.364 122.486  1.00  0.00    +0.004 A 
ATOM     15  C   UNL     1     135.925 124.093 124.043  1.00  0.00    +0.019 A 
ATOM     16  C   UNL     1     135.321 123.287 121.441  1.00  0.00    +0.001 A 
ATOM     17  C   UNL     1     135.975 125.027 122.995  1.00  0.00    +0.060 A 
ATOM     18  C   UNL     1     135.664 124.614 121.693  1.00  0.00    +0.016 A 
BRANCH  17  19
ATOM     19  C   UNL     1     136.349 126.452 123.208  1.00  0.00    +0.337 C 
ATOM     20  O   UNL     1     136.065 127.346 122.428  1.00  0.00    -0.246 OA
BRANCH  19  21
ATOM     21  O   UNL     1     137.012 126.599 124.383  1.00  0.00    -0.465 OA
ATOM     22  C   UNL     1     136.461 127.611 125.231  1.00  0.00    +0.282 C 
ENDBRANCH  19  21
ENDBRANCH  17  19
ENDBRANCH   1  13
TORSDOF 7
ENDMDL
MODEL 9
REMARK VINA RESULT:    -6.678      1.434      2.195
REMARK INTER + INTRA:         -11.884
REMARK INTER:                 -10.888
REMARK INTRA:                  -0.996
REMARK UNBOUND:                -2.474
REMARK SMILES COC(=O)c1cccc(CC[N@H+](C)Cc2ccccc2)c1
REMARK SMILES IDX 10 1 11 2 12 3 13 4 14 6 15 7 16 8 20 9 17 10 19 11 18 12
REMARK SMILES IDX 9 13 8 14 21 15 7 16 5 17 6 18 3 19 4 20 2 21 1 22
REMARK H PARENT 12 5
REMARK INDEX MAP 4 1 3 2 2 3 1 4 25 5 15 6 16 7 17 8 21 9 18 10 20 11 19 12
REMARK INDEX MAP 5 13 6 14 10 15 7 16 9 17 8 18 11 19 12 20 13 21 14 22
ROOT
ATOM      1  C   UNL     1     136.324 124.466 123.913  1.00  0.00    +0.097 C 
ENDROOT
BRANCH   1   2
ATOM      2  C   UNL     1     136.083 122.992 124.275  1.00  0.00    +0.267 C 
BRANCH   2   3
ATOM      3  N   UNL     1     135.188 122.755 125.475  1.00  0.00    -0.333 N 
ATOM      4  C   UNL     1     135.784 121.852 126.518  1.00  0.00    +0.333 C 
ATOM      5  H   UNL     1     135.117 123.672 125.933  1.00  0.00    +0.348 HD
BRANCH   3   6
ATOM      6  C   UNL     1     133.753 122.403 125.135  1.00  0.00    +0.298 C 
BRANCH   6   7
ATOM      7  C   UNL     1     132.768 123.364 125.747  1.00  0.00    +0.006 A 
ATOM      8  C   UNL     1     132.972 124.749 125.657  1.00  0.00    +0.009 A 
ATOM      9  C   UNL     1     131.618 122.887 126.395  1.00  0.00    +0.009 A 
ATOM     10  C   UNL     1     132.042 125.637 126.198  1.00  0.00    +0.001 A 
ATOM     11  C   UNL     1     130.690 123.779 126.935  1.00  0.00    +0.001 A 
ATOM     12  C   UNL     1     130.902 125.152 126.834  1.00  0.00    +0.000 A 
ENDBRANCH   6   7
ENDBRANCH   3   6
ENDBRANCH   2   3
ENDBRANCH   1   2
BRANCH   1  13
ATOM     13  C   UNL     1     135.587 124.969 122.696  1.00  0.00    -0.042 A 
ATOM     14  C   UNL     1     134.860 126.166 122.753  1.00  0.00    +0.004 A 
ATOM     15  C   UNL     1     135.589 124.233 121.499  1.00  0.00    +0.019 A 
ATOM     16  C   UNL     1     134.180 126.638 121.630  1.00  0.00    +0.001 A 
ATOM     17  C   UNL     1     134.910 124.704 120.365  1.00  0.00    +0.060 A 
ATOM     18  C   UNL     1     134.210 125.915 120.438  1.00  0.00    +0.016 A 
BRANCH  17  19
ATOM     19  C   UNL     1     134.899 123.965 119.072  1.00  0.00    +0.337 C 
ATOM     20  O   UNL     1     135.375 122.851 118.931  1.00  0.00    -0.246 OA
BRANCH  19  21
ATOM     21  O   UNL     1     134.273 124.694 118.114  1.00  0.00    -0.465 OA
ATOM     22  C   UNL     1     133.630 123.896 117.115  1.00  0.00    +0.282 C 
ENDBRANCH  19  21
ENDBRANCH  17  19
ENDBRANCH   1  13
TORSDOF 7
ENDMDL
MODEL 10
REMARK VINA RESULT:    -6.585      3.392      6.329
REMARK INTER + INTRA:         -11.753
REMARK INTER:                 -11.208
REMARK INTRA:                  -0.545
REMARK UNBOUND:                -2.474
REMARK SMILES COC(=O)c1cccc(CC[N@H+](C)Cc2ccccc2)c1
REMARK SMILES IDX 10 1 11 2 12 3 13 4 14 6 15 7 16 8 20 9 17 10 19 11 18 12
REMARK SMILES IDX 9 13 8 14 21 15 7 16 5 17 6 18 3 19 4 20 2 21 1 22
REMARK H PARENT 12 5
REMARK INDEX MAP 4 1 3 2 2 3 1 4 25 5 15 6 16 7 17 8 21 9 18 10 20 11 19 12
REMARK INDEX MAP 5 13 6 14 10 15 7 16 9 17 8 18 11 19 12 20 13 21 14 22
ROOT
ATOM      1  C   UNL     1     133.570 123.287 126.045  1.00  0.00    +0.097 C 
ENDROOT
BRANCH   1   2
ATOM      2  C   UNL     1     134.484 123.980 125.023  1.00  0.00    +0.267 C 
BRANCH   2   3
ATOM      3  N   UNL     1     135.000 123.095 123.906  1.00  0.00    -0.333 N 
ATOM      4  C   UNL     1     135.394 121.714 124.348  1.00  0.00    +0.333 C 
ATOM      5  H   UNL     1     134.189 122.951 123.291  1.00  0.00    +0.348 HD
BRANCH   3   6
ATOM      6  C   UNL     1     136.031 123.747 123.006  1.00  0.00    +0.298 C 
BRANCH   6   7
ATOM      7  C   UNL     1     135.477 124.071 121.643  1.00  0.00    +0.006 A 
ATOM      8  C   UNL     1     134.634 125.177 121.460  1.00  0.00    +0.009 A 
ATOM      9  C   UNL     1     135.819 123.284 120.532  1.00  0.00    +0.009 A 
ATOM     10  C   UNL     1     134.148 125.492 120.190  1.00  0.00    +0.001 A 
ATOM     11  C   UNL     1     135.330 123.603 119.264  1.00  0.00    +0.001 A 
ATOM     12  C   UNL     1     134.498 124.707 119.094  1.00  0.00    +0.000 A 
ENDBRANCH   6   7
ENDBRANCH   3   6
ENDBRANCH   2   3
ENDBRANCH   1   2
BRANCH   1  13
ATOM     13  C   UNL     1     132.313 124.036 126.410  1.00  0.00    -0.042 A 
ATOM     14  C   UNL     1     131.167 123.339 126.820  1.00  0.00    +0.004 A 
ATOM     15  C   UNL     1     132.257 125.437 126.316  1.00  0.00    +0.019 A 
ATOM     16  C   UNL     1     130.003 124.027 127.162  1.00  0.00    +0.001 A 
ATOM     17  C   UNL     1     131.089 126.135 126.663  1.00  0.00    +0.060 A 
ATOM     18  C   UNL     1     129.965 125.419 127.092  1.00  0.00    +0.016 A 
BRANCH  17  19
ATOM     19  C   UNL     1     130.991 127.619 126.592  1.00  0.00    +0.337 C 
ATOM     20  O   UNL     1     130.146 128.206 125.937  1.00  0.00    -0.246 OA
BRANCH  19  21
ATOM     21  O   UNL     1     131.945 128.195 127.366  1.00  0.00    -0.465 OA
ATOM     22  C   UNL     1     131.480 128.566 128.668  1.00  0.00    +0.282 C 
ENDBRANCH  19  21
ENDBRANCH  17  19
ENDBRANCH   1  13
TORSDOF 7
ENDMDL
MODEL 11
REMARK VINA RESULT:    -6.434      3.681      6.292
REMARK INTER + INTRA:         -11.541
REMARK INTER:                 -10.908
REMARK INTRA:                  -0.633
REMARK UNBOUND:                -2.474
REMARK SMILES COC(=O)c1cccc(CC[N@H+](C)Cc2ccccc2)c1
REMARK SMILES IDX 10 1 11 2 12 3 13 4 14 6 15 7 16 8 20 9 17 10 19 11 18 12
REMARK SMILES IDX 9 13 8 14 21 15 7 16 5 17 6 18 3 19 4 20 2 21 1 22
REMARK H PARENT 12 5
REMARK INDEX MAP 4 1 3 2 2 3 1 4 25 5 15 6 16 7 17 8 21 9 18 10 20 11 19 12
REMARK INDEX MAP 5 13 6 14 10 15 7 16 9 17 8 18 11 19 12 20 13 21 14 22
ROOT
ATOM      1  C   UNL     1     133.042 125.323 124.704  1.00  0.00    +0.097 C 
ENDROOT
BRANCH   1   2
ATOM      2  C   UNL     1     134.336 125.915 124.124  1.00  0.00    +0.267 C 
BRANCH   2   3
ATOM      3  N   UNL     1     135.493 126.027 125.097  1.00  0.00    -0.333 N 
ATOM      4  C   UNL     1     136.151 127.378 125.116  1.00  0.00    +0.333 C 
ATOM      5  H   UNL     1     135.063 125.932 126.025  1.00  0.00    +0.348 HD
BRANCH   3   6
ATOM      6  C   UNL     1     136.486 124.883 125.032  1.00  0.00    +0.298 C 
BRANCH   6   7
ATOM      7  C   UNL     1     135.860 123.562 125.394  1.00  0.00    +0.006 A 
ATOM      8  C   UNL     1     135.812 122.516 124.461  1.00  0.00    +0.009 A 
ATOM      9  C   UNL     1     135.338 123.352 126.680  1.00  0.00    +0.009 A 
ATOM     10  C   UNL     1     135.259 121.283 124.810  1.00  0.00    +0.001 A 
ATOM     11  C   UNL     1     134.787 122.117 127.025  1.00  0.00    +0.001 A 
ATOM     12  C   UNL     1     134.749 121.084 126.091  1.00  0.00    +0.000 A 
ENDBRANCH   6   7
ENDBRANCH   3   6
ENDBRANCH   2   3
ENDBRANCH   1   2
BRANCH   1  13
ATOM     13  C   UNL     1     131.962 126.320 125.044  1.00  0.00    -0.042 A 
ATOM     14  C   UNL     1     131.967 126.974 126.285  1.00  0.00    +0.004 A 
ATOM     15  C   UNL     1     130.918 126.586 124.141  1.00  0.00    +0.019 A 
ATOM     16  C   UNL     1     130.973 127.899 126.603  1.00  0.00    +0.001 A 
ATOM     17  C   UNL     1     129.918 127.519 124.455  1.00  0.00    +0.060 A 
ATOM     18  C   UNL     1     129.957 128.178 125.690  1.00  0.00    +0.016 A 
BRANCH  17  19
ATOM     19  C   UNL     1     128.803 127.843 123.522  1.00  0.00    +0.337 C 
ATOM     20  O   UNL     1     127.984 127.023 123.143  1.00  0.00    -0.246 OA
BRANCH  19  21
ATOM     21  O   UNL     1     128.828 129.158 123.190  1.00  0.00    -0.465 OA
ATOM     22  C   UNL     1     127.996 129.484 122.073  1.00  0.00    +0.282 C 
ENDBRANCH  19  21
ENDBRANCH  17  19
ENDBRANCH   1  13
TORSDOF 7
ENDMDL
MODEL 12
REMARK VINA RESULT:    -6.430      2.903      5.750
REMARK INTER + INTRA:         -11.535
REMARK INTER:                  -9.144
REMARK INTRA:                  -2.391
REMARK UNBOUND:                -2.474
REMARK SMILES COC(=O)c1cccc(CC[N@H+](C)Cc2ccccc2)c1
REMARK SMILES IDX 10 1 11 2 12 3 13 4 14 6 15 7 16 8 20 9 17 10 19 11 18 12
REMARK SMILES IDX 9 13 8 14 21 15 7 16 5 17 6 18 3 19 4 20 2 21 1 22
REMARK H PARENT 12 5
REMARK INDEX MAP 4 1 3 2 2 3 1 4 25 5 15 6 16 7 17 8 21 9 18 10 20 11 19 12
REMARK INDEX MAP 5 13 6 14 10 15 7 16 9 17 8 18 11 19 12 20 13 21 14 22
ROOT
ATOM      1  C   UNL     1     132.596 125.113 122.194  1.00  0.00    +0.097 C 
ENDROOT
BRANCH   1   2
ATOM      2  C   UNL     1     133.620 124.388 121.306  1.00  0.00    +0.267 C 
BRANCH   2   3
ATOM      3  N   UNL     1     134.656 125.278 120.649  1.00  0.00    -0.333 N 
ATOM      4  C   UNL     1     134.578 125.310 119.149  1.00  0.00    +0.333 C 
ATOM      5  H   UNL     1     134.407 126.231 120.944  1.00  0.00    +0.348 HD
BRANCH   3   6
ATOM      6  C   UNL     1     136.069 125.091 121.166  1.00  0.00    +0.298 C 
BRANCH   6   7
ATOM      7  C   UNL     1     136.187 125.408 122.634  1.00  0.00    +0.006 A 
ATOM      8  C   UNL     1     135.999 126.717 123.099  1.00  0.00    +0.009 A 
ATOM      9  C   UNL     1     136.461 124.389 123.561  1.00  0.00    +0.009 A 
ATOM     10  C   UNL     1     136.078 127.001 124.464  1.00  0.00    +0.001 A 
ATOM     11  C   UNL     1     136.539 124.678 124.924  1.00  0.00    +0.001 A 
ATOM     12  C   UNL     1     136.345 125.982 125.374  1.00  0.00    +0.000 A 
ENDBRANCH   6   7
ENDBRANCH   3   6
ENDBRANCH   2   3
ENDBRANCH   1   2
BRANCH   1  13
ATOM     13  C   UNL     1     132.686 124.814 123.670  1.00  0.00    -0.042 A 
ATOM     14  C   UNL     1     132.429 125.820 124.613  1.00  0.00    +0.004 A 
ATOM     15  C   UNL     1     133.058 123.538 124.124  1.00  0.00    +0.019 A 
ATOM     16  C   UNL     1     132.506 125.548 125.979  1.00  0.00    +0.001 A 
ATOM     17  C   UNL     1     133.134 123.257 125.498  1.00  0.00    +0.060 A 
ATOM     18  C   UNL     1     132.850 124.271 126.422  1.00  0.00    +0.016 A 
BRANCH  17  19
ATOM     19  C   UNL     1     133.509 121.915 126.023  1.00  0.00    +0.337 C 
ATOM     20  O   UNL     1     132.694 121.065 126.338  1.00  0.00    -0.246 OA
BRANCH  19  21
ATOM     21  O   UNL     1     134.859 121.784 126.070  1.00  0.00    -0.465 OA
ATOM     22  C   UNL     1     135.410 121.988 127.374  1.00  0.00    +0.282 C 
ENDBRANCH  19  21
ENDBRANCH  17  19
ENDBRANCH   1  13
TORSDOF 7
ENDMDL
MODEL 13
REMARK VINA RESULT:    -6.285      3.091      6.371
REMARK INTER + INTRA:         -11.330
REMARK INTER:                 -10.731
REMARK INTRA:                  -0.599
REMARK UNBOUND:                -2.474
REMARK SMILES COC(=O)c1cccc(CC[N@H+](C)Cc2ccccc2)c1
REMARK SMILES IDX 10 1 11 2 12 3 13 4 14 6 15 7 16 8 20 9 17 10 19 11 18 12
REMARK SMILES IDX 9 13 8 14 21 15 7 16 5 17 6 18 3 19 4 20 2 21 1 22
REMARK H PARENT 12 5
REMARK INDEX MAP 4 1 3 2 2 3 1 4 25 5 15 6 16 7 17 8 21 9 18 10 20 11 19 12
REMARK INDEX MAP 5 13 6 14 10 15 7 16 9 17 8 18 11 19 12 20 13 21 14 22
ROOT
ATOM      1  C   UNL     1     133.550 126.248 122.827  1.00  0.00    +0.097 C 
ENDROOT
BRANCH   1   2
ATOM      2  C   UNL     1     133.459 125.422 121.535  1.00  0.00    +0.267 C 
BRANCH   2   3
ATOM      3  N   UNL     1     134.786 124.994 120.942  1.00  0.00    -0.333 N 
ATOM      4  C   UNL     1     135.986 125.571 121.638  1.00  0.00    +0.333 C 
ATOM      5  H   UNL     1     134.839 123.984 121.123  1.00  0.00    +0.348 HD
BRANCH   3   6
ATOM      6  C   UNL     1     134.869 125.101 119.431  1.00  0.00    +0.298 C 
BRANCH   6   7
ATOM      7  C   UNL     1     134.912 123.751 118.764  1.00  0.00    +0.006 A 
ATOM      8  C   UNL     1     135.321 122.615 119.478  1.00  0.00    +0.009 A 
ATOM      9  C   UNL     1     134.520 123.608 117.424  1.00  0.00    +0.009 A 
ATOM     10  C   UNL     1     135.330 121.361 118.866  1.00  0.00    +0.001 A 
ATOM     11  C   UNL     1     134.531 122.352 116.816  1.00  0.00    +0.001 A 
ATOM     12  C   UNL     1     134.933 121.230 117.538  1.00  0.00    +0.000 A 
ENDBRANCH   6   7
ENDBRANCH   3   6
ENDBRANCH   2   3
ENDBRANCH   1   2
BRANCH   1  13
ATOM     13  C   UNL     1     133.118 125.539 124.087  1.00  0.00    -0.042 A 
ATOM     14  C   UNL     1     131.856 125.791 124.644  1.00  0.00    +0.004 A 
ATOM     15  C   UNL     1     133.981 124.643 124.740  1.00  0.00    +0.019 A 
ATOM     16  C   UNL     1     131.450 125.135 125.806  1.00  0.00    +0.001 A 
ATOM     17  C   UNL     1     133.576 123.978 125.908  1.00  0.00    +0.060 A 
ATOM     18  C   UNL     1     132.302 124.227 126.433  1.00  0.00    +0.016 A 
BRANCH  17  19
ATOM     19  C   UNL     1     134.452 123.009 126.623  1.00  0.00    +0.337 C 
ATOM     20  O   UNL     1     135.360 123.345 127.366  1.00  0.00    -0.246 OA
BRANCH  19  21
ATOM     21  O   UNL     1     134.077 121.735 126.346  1.00  0.00    -0.465 OA
ATOM     22  C   UNL     1     134.998 121.036 125.503  1.00  0.00    +0.282 C 
ENDBRANCH  19  21
ENDBRANCH  17  19
ENDBRANCH   1  13
TORSDOF 7
ENDMDL
MODEL 14
REMARK VINA RESULT:    -6.232      1.620      3.610
REMARK INTER + INTRA:         -11.256
REMARK INTER:                 -10.320
REMARK INTRA:                  -0.936
REMARK UNBOUND:                -2.474
REMARK SMILES COC(=O)c1cccc(CC[N@H+](C)Cc2ccccc2)c1
REMARK SMILES IDX 10 1 11 2 12 3 13 4 14 6 15 7 16 8 20 9 17 10 19 11 18 12
REMARK SMILES IDX 9 13 8 14 21 15 7 16 5 17 6 18 3 19 4 20 2 21 1 22
REMARK H PARENT 12 5
REMARK INDEX MAP 4 1 3 2 2 3 1 4 25 5 15 6 16 7 17 8 21 9 18 10 20 11 19 12
REMARK INDEX MAP 5 13 6 14 10 15 7 16 9 17 8 18 11 19 12 20 13 21 14 22
ROOT
ATOM      1  C   UNL     1     136.028 127.040 122.926  1.00  0.00    +0.097 C 
ENDROOT
BRANCH   1   2
ATOM      2  C   UNL     1     137.004 126.189 123.753  1.00  0.00    +0.267 C 
BRANCH   2   3
ATOM      3  N   UNL     1     136.365 125.110 124.604  1.00  0.00    -0.333 N 
ATOM      4  C   UNL     1     136.908 125.027 126.003  1.00  0.00    +0.333 C 
ATOM      5  H   UNL     1     135.390 125.412 124.719  1.00  0.00    +0.348 HD
BRANCH   3   6
ATOM      6  C   UNL     1     136.253 123.756 123.930  1.00  0.00    +0.298 C 
BRANCH   6   7
ATOM      7  C   UNL     1     135.228 122.872 124.591  1.00  0.00    +0.006 A 
ATOM      8  C   UNL     1     133.935 123.351 124.852  1.00  0.00    +0.009 A 
ATOM      9  C   UNL     1     135.545 121.548 124.932  1.00  0.00    +0.009 A 
ATOM     10  C   UNL     1     132.978 122.519 125.435  1.00  0.00    +0.001 A 
ATOM     11  C   UNL     1     134.584 120.720 125.516  1.00  0.00    +0.001 A 
ATOM     12  C   UNL     1     133.303 121.205 125.764  1.00  0.00    +0.000 A 
ENDBRANCH   6   7
ENDBRANCH   3   6
ENDBRANCH   2   3
ENDBRANCH   1   2
BRANCH   1  13
ATOM     13  C   UNL     1     135.008 126.271 122.124  1.00  0.00    -0.042 A 
ATOM     14  C   UNL     1     133.699 126.118 122.603  1.00  0.00    +0.004 A 
ATOM     15  C   UNL     1     135.358 125.669 120.903  1.00  0.00    +0.019 A 
ATOM     16  C   UNL     1     132.751 125.411 121.864  1.00  0.00    +0.001 A 
ATOM     17  C   UNL     1     134.406 124.960 120.153  1.00  0.00    +0.060 A 
ATOM     18  C   UNL     1     133.099 124.840 120.640  1.00  0.00    +0.016 A 
BRANCH  17  19
ATOM     19  C   UNL     1     134.729 124.320 118.848  1.00  0.00    +0.337 C 
ATOM     20  O   UNL     1     135.580 123.456 118.715  1.00  0.00    -0.246 OA
BRANCH  19  21
ATOM     21  O   UNL     1     133.936 124.817 117.866  1.00  0.00    -0.465 OA
ATOM     22  C   UNL     1     133.440 123.819 116.969  1.00  0.00    +0.282 C 
ENDBRANCH  19  21
ENDBRANCH  17  19
ENDBRANCH   1  13
TORSDOF 7
ENDMDL
MODEL 15
REMARK VINA RESULT:    -6.184      2.350      3.730
REMARK INTER + INTRA:         -11.188
REMARK INTER:                 -10.725
REMARK INTRA:                  -0.464
REMARK UNBOUND:                -2.474
REMARK SMILES COC(=O)c1cccc(CC[N@H+](C)Cc2ccccc2)c1
REMARK SMILES IDX 10 1 11 2 12 3 13 4 14 6 15 7 16 8 20 9 17 10 19 11 18 12
REMARK SMILES IDX 9 13 8 14 21 15 7 16 5 17 6 18 3 19 4 20 2 21 1 22
REMARK H PARENT 12 5
REMARK INDEX MAP 4 1 3 2 2 3 1 4 25 5 15 6 16 7 17 8 21 9 18 10 20 11 19 12
REMARK INDEX MAP 5 13 6 14 10 15 7 16 9 17 8 18 11 19 12 20 13 21 14 22
ROOT
ATOM      1  C   UNL     1     133.910 126.226 122.162  1.00  0.00    +0.097 C 
ENDROOT
BRANCH   1   2
ATOM      2  C   UNL     1     133.952 125.876 123.658  1.00  0.00    +0.267 C 
BRANCH   2   3
ATOM      3  N   UNL     1     132.668 125.306 124.229  1.00  0.00    -0.333 N 
ATOM      4  C   UNL     1     132.298 123.956 123.684  1.00  0.00    +0.333 C 
ATOM      5  H   UNL     1     132.876 125.140 125.222  1.00  0.00    +0.348 HD
BRANCH   3   6
ATOM      6  C   UNL     1     131.502 126.276 124.254  1.00  0.00    +0.298 C 
BRANCH   6   7
ATOM      7  C   UNL     1     131.047 126.585 125.657  1.00  0.00    +0.006 A 
ATOM      8  C   UNL     1     131.610 127.654 126.370  1.00  0.00    +0.009 A 
ATOM      9  C   UNL     1     130.035 125.822 126.260  1.00  0.00    +0.009 A 
ATOM     10  C   UNL     1     131.163 127.957 127.658  1.00  0.00    +0.001 A 
ATOM     11  C   UNL     1     129.592 126.129 127.548  1.00  0.00    +0.001 A 
ATOM     12  C   UNL     1     130.155 127.196 128.243  1.00  0.00    +0.000 A 
ENDBRANCH   6   7
ENDBRANCH   3   6
ENDBRANCH   2   3
ENDBRANCH   1   2
BRANCH   1  13
ATOM     13  C   UNL     1     134.576 125.234 121.241  1.00  0.00    -0.042 A 
ATOM     14  C   UNL     1     135.723 124.542 121.654  1.00  0.00    +0.004 A 
ATOM     15  C   UNL     1     134.079 125.011 119.945  1.00  0.00    +0.019 A 
ATOM     16  C   UNL     1     136.340 123.621 120.808  1.00  0.00    +0.001 A 
ATOM     17  C   UNL     1     134.694 124.083 119.090  1.00  0.00    +0.060 A 
ATOM     18  C   UNL     1     135.825 123.385 119.534  1.00  0.00    +0.016 A 
BRANCH  17  19
ATOM     19  C   UNL     1     134.193 123.804 117.716  1.00  0.00    +0.337 C 
ATOM     20  O   UNL     1     133.638 124.639 117.021  1.00  0.00    -0.246 OA
BRANCH  19  21
ATOM     21  O   UNL     1     134.465 122.523 117.362  1.00  0.00    -0.465 OA
ATOM     22  C   UNL     1     135.149 122.405 116.111  1.00  0.00    +0.282 C 
ENDBRANCH  19  21
ENDBRANCH  17  19
ENDBRANCH   1  13
TORSDOF 7
ENDMDL
MODEL 16
REMARK VINA RESULT:    -6.140      3.536      6.982
REMARK INTER + INTRA:         -11.126
REMARK INTER:                 -10.595
REMARK INTRA:                  -0.531
REMARK UNBOUND:                -2.474
REMARK SMILES COC(=O)c1cccc(CC[N@H+](C)Cc2ccccc2)c1
REMARK SMILES IDX 10 1 11 2 12 3 13 4 14 6 15 7 16 8 20 9 17 10 19 11 18 12
REMARK SMILES IDX 9 13 8 14 21 15 7 16 5 17 6 18 3 19 4 20 2 21 1 22
REMARK H PARENT 12 5
REMARK INDEX MAP 4 1 3 2 2 3 1 4 25 5 15 6 16 7 17 8 21 9 18 10 20 11 19 12
REMARK INDEX MAP 5 13 6 14 10 15 7 16 9 17 8 18 11 19 12 20 13 21 14 22
ROOT
ATOM      1  C   UNL     1     133.528 126.164 122.716  1.00  0.00    +0.097 C 
ENDROOT
BRANCH   1   2
ATOM      2  C   UNL     1     133.467 125.249 121.483  1.00  0.00    +0.267 C 
BRANCH   2   3
ATOM      3  N   UNL     1     134.806 124.909 120.859  1.00  0.00    -0.333 N 
ATOM      4  C   UNL     1     135.982 125.561 121.531  1.00  0.00    +0.333 C 
ATOM      5  H   UNL     1     134.928 123.904 121.035  1.00  0.00    +0.348 HD
BRANCH   3   6
ATOM      6  C   UNL     1     134.847 125.024 119.348  1.00  0.00    +0.298 C 
BRANCH   6   7
ATOM      7  C   UNL     1     134.869 123.678 118.672  1.00  0.00    +0.006 A 
ATOM      8  C   UNL     1     134.511 123.551 117.322  1.00  0.00    +0.009 A 
ATOM      9  C   UNL     1     135.274 122.535 119.380  1.00  0.00    +0.009 A 
ATOM     10  C   UNL     1     134.563 122.307 116.692  1.00  0.00    +0.001 A 
ATOM     11  C   UNL     1     135.324 121.293 118.745  1.00  0.00    +0.001 A 
ATOM     12  C   UNL     1     134.971 121.181 117.402  1.00  0.00    +0.000 A 
ENDBRANCH   6   7
ENDBRANCH   3   6
ENDBRANCH   2   3
ENDBRANCH   1   2
BRANCH   1  13
ATOM     13  C   UNL     1     133.085 125.538 124.016  1.00  0.00    -0.042 A 
ATOM     14  C   UNL     1     133.968 124.736 124.752  1.00  0.00    +0.004 A 
ATOM     15  C   UNL     1     131.776 125.721 124.493  1.00  0.00    +0.019 A 
ATOM     16  C   UNL     1     133.566 124.158 125.957  1.00  0.00    +0.001 A 
ATOM     17  C   UNL     1     131.367 125.145 125.706  1.00  0.00    +0.060 A 
ATOM     18  C   UNL     1     132.273 124.367 126.437  1.00  0.00    +0.016 A 
BRANCH  17  19
ATOM     19  C   UNL     1     129.995 125.325 126.256  1.00  0.00    +0.337 C 
ATOM     20  O   UNL     1     128.994 125.380 125.561  1.00  0.00    -0.246 OA
BRANCH  19  21
ATOM     21  O   UNL     1     130.031 125.392 127.611  1.00  0.00    -0.465 OA
ATOM     22  C   UNL     1     129.739 126.693 128.130  1.00  0.00    +0.282 C 
ENDBRANCH  19  21
ENDBRANCH  17  19
ENDBRANCH   1  13
TORSDOF 7
ENDMDL
MODEL 17
REMARK VINA RESULT:    -6.064      4.200      6.539
REMARK INTER + INTRA:         -11.020
REMARK INTER:                 -10.165
REMARK INTRA:                  -0.855
REMARK UNBOUND:                -2.474
REMARK SMILES COC(=O)c1cccc(CC[N@H+](C)Cc2ccccc2)c1
REMARK SMILES IDX 10 1 11 2 12 3 13 4 14 6 15 7 16 8 20 9 17 10 19 11 18 12
REMARK SMILES IDX 9 13 8 14 21 15 7 16 5 17 6 18 3 19 4 20 2 21 1 22
REMARK H PARENT 12 5
REMARK INDEX MAP 4 1 3 2 2 3 1 4 25 5 15 6 16 7 17 8 21 9 18 10 20 11 19 12
REMARK INDEX MAP 5 13 6 14 10 15 7 16 9 17 8 18 11 19 12 20 13 21 14 22
ROOT
ATOM      1  C   UNL     1     132.852 123.065 125.611  1.00  0.00    +0.097 C 
ENDROOT
BRANCH   1   2
ATOM      2  C   UNL     1     134.338 123.309 125.915  1.00  0.00    +0.267 C 
BRANCH   2   3
ATOM      3  N   UNL     1     135.298 122.956 124.796  1.00  0.00    -0.333 N 
ATOM      4  C   UNL     1     136.261 121.853 125.136  1.00  0.00    +0.333 C 
ATOM      5  H   UNL     1     134.702 122.564 124.056  1.00  0.00    +0.348 HD
BRANCH   3   6
ATOM      6  C   UNL     1     135.968 124.147 124.138  1.00  0.00    +0.298 C 
BRANCH   6   7
ATOM      7  C   UNL     1     135.234 124.605 122.905  1.00  0.00    +0.006 A 
ATOM      8  C   UNL     1     134.316 125.663 122.972  1.00  0.00    +0.009 A 
ATOM      9  C   UNL     1     135.479 123.994 121.664  1.00  0.00    +0.009 A 
ATOM     10  C   UNL     1     133.662 126.105 121.821  1.00  0.00    +0.001 A 
ATOM     11  C   UNL     1     134.823 124.440 120.516  1.00  0.00    +0.001 A 
ATOM     12  C   UNL     1     133.917 125.495 120.595  1.00  0.00    +0.000 A 
ENDBRANCH   6   7
ENDBRANCH   3   6
ENDBRANCH   2   3
ENDBRANCH   1   2
BRANCH   1  13
ATOM     13  C   UNL     1     131.898 124.109 126.135  1.00  0.00    -0.042 A 
ATOM     14  C   UNL     1     132.291 125.453 126.212  1.00  0.00    +0.004 A 
ATOM     15  C   UNL     1     130.616 123.751 126.585  1.00  0.00    +0.019 A 
ATOM     16  C   UNL     1     131.411 126.423 126.692  1.00  0.00    +0.001 A 
ATOM     17  C   UNL     1     129.725 124.723 127.066  1.00  0.00    +0.060 A 
ATOM     18  C   UNL     1     130.131 126.063 127.110  1.00  0.00    +0.016 A 
BRANCH  17  19
ATOM     19  C   UNL     1     128.352 124.390 127.538  1.00  0.00    +0.337 C 
ATOM     20  O   UNL     1     127.391 125.126 127.383  1.00  0.00    -0.246 OA
BRANCH  19  21
ATOM     21  O   UNL     1     128.336 123.168 128.126  1.00  0.00    -0.465 OA
ATOM     22  C   UNL     1     127.337 123.033 129.141  1.00  0.00    +0.282 C 
ENDBRANCH  19  21
ENDBRANCH  17  19
ENDBRANCH   1  13
TORSDOF 7
ENDMDL
MODEL 18
REMARK VINA RESULT:    -6.024      3.404      6.105
REMARK INTER + INTRA:         -10.963
REMARK INTER:                  -9.534
REMARK INTRA:                  -1.430
REMARK UNBOUND:                -2.474
REMARK SMILES COC(=O)c1cccc(CC[N@H+](C)Cc2ccccc2)c1
REMARK SMILES IDX 10 1 11 2 12 3 13 4 14 6 15 7 16 8 20 9 17 10 19 11 18 12
REMARK SMILES IDX 9 13 8 14 21 15 7 16 5 17 6 18 3 19 4 20 2 21 1 22
REMARK H PARENT 12 5
REMARK INDEX MAP 4 1 3 2 2 3 1 4 25 5 15 6 16 7 17 8 21 9 18 10 20 11 19 12
REMARK INDEX MAP 5 13 6 14 10 15 7 16 9 17 8 18 11 19 12 20 13 21 14 22
ROOT
ATOM      1  C   UNL     1     133.216 125.297 122.904  1.00  0.00    +0.097 C 
ENDROOT
BRANCH   1   2
ATOM      2  C   UNL     1     133.814 123.923 122.563  1.00  0.00    +0.267 C 
BRANCH   2   3
ATOM      3  N   UNL     1     135.277 123.929 122.170  1.00  0.00    -0.333 N 
ATOM      4  C   UNL     1     135.516 123.871 120.687  1.00  0.00    +0.333 C 
ATOM      5  H   UNL     1     135.620 124.856 122.453  1.00  0.00    +0.348 HD
BRANCH   3   6
ATOM      6  C   UNL     1     136.147 122.961 122.949  1.00  0.00    +0.298 C 
BRANCH   6   7
ATOM      7  C   UNL     1     135.635 122.734 124.348  1.00  0.00    +0.006 A 
ATOM      8  C   UNL     1     135.090 121.495 124.715  1.00  0.00    +0.009 A 
ATOM      9  C   UNL     1     135.719 123.752 125.310  1.00  0.00    +0.009 A 
ATOM     10  C   UNL     1     134.646 121.277 126.020  1.00  0.00    +0.001 A 
ATOM     11  C   UNL     1     135.274 123.530 126.614  1.00  0.00    +0.001 A 
ATOM     12  C   UNL     1     134.740 122.293 126.968  1.00  0.00    +0.000 A 
ENDBRANCH   6   7
ENDBRANCH   3   6
ENDBRANCH   2   3
ENDBRANCH   1   2
BRANCH   1  13
ATOM     13  C   UNL     1     132.600 125.420 124.275  1.00  0.00    -0.042 A 
ATOM     14  C   UNL     1     132.614 126.648 124.951  1.00  0.00    +0.004 A 
ATOM     15  C   UNL     1     132.031 124.303 124.911  1.00  0.00    +0.019 A 
ATOM     16  C   UNL     1     132.042 126.768 126.218  1.00  0.00    +0.001 A 
ATOM     17  C   UNL     1     131.451 124.418 126.184  1.00  0.00    +0.060 A 
ATOM     18  C   UNL     1     131.455 125.661 126.829  1.00  0.00    +0.016 A 
BRANCH  17  19
ATOM     19  C   UNL     1     130.824 123.265 126.886  1.00  0.00    +0.337 C 
ATOM     20  O   UNL     1     131.344 122.164 126.968  1.00  0.00    -0.246 OA
BRANCH  19  21
ATOM     21  O   UNL     1     129.633 123.627 127.426  1.00  0.00    -0.465 OA
ATOM     22  C   UNL     1     128.634 123.942 126.451  1.00  0.00    +0.282 C 
ENDBRANCH  19  21
ENDBRANCH  17  19
ENDBRANCH   1  13
TORSDOF 7
ENDMDL
MODEL 19
REMARK VINA RESULT:    -6.024      3.497      5.246
REMARK INTER + INTRA:         -10.962
REMARK INTER:                 -10.429
REMARK INTRA:                  -0.533
REMARK UNBOUND:                -2.474
REMARK SMILES COC(=O)c1cccc(CC[N@H+](C)Cc2ccccc2)c1
REMARK SMILES IDX 10 1 11 2 12 3 13 4 14 6 15 7 16 8 20 9 17 10 19 11 18 12
REMARK SMILES IDX 9 13 8 14 21 15 7 16 5 17 6 18 3 19 4 20 2 21 1 22
REMARK H PARENT 12 5
REMARK INDEX MAP 4 1 3 2 2 3 1 4 25 5 15 6 16 7 17 8 21 9 18 10 20 11 19 12
REMARK INDEX MAP 5 13 6 14 10 15 7 16 9 17 8 18 11 19 12 20 13 21 14 22
ROOT
ATOM      1  C   UNL     1     131.800 125.653 123.269  1.00  0.00    +0.097 C 
ENDROOT
BRANCH   1   2
ATOM      2  C   UNL     1     132.046 126.500 124.528  1.00  0.00    +0.267 C 
BRANCH   2   3
ATOM      3  N   UNL     1     130.813 126.816 125.350  1.00  0.00    -0.333 N 
ATOM      4  C   UNL     1     130.102 128.073 124.936  1.00  0.00    +0.333 C 
ATOM      5  H   UNL     1     130.153 126.059 125.134  1.00  0.00    +0.348 HD
BRANCH   3   6
ATOM      6  C   UNL     1     131.010 126.714 126.851  1.00  0.00    +0.298 C 
BRANCH   6   7
ATOM      7  C   UNL     1     129.961 125.855 127.507  1.00  0.00    +0.006 A 
ATOM      8  C   UNL     1     129.076 126.402 128.447  1.00  0.00    +0.009 A 
ATOM      9  C   UNL     1     129.838 124.498 127.167  1.00  0.00    +0.009 A 
ATOM     10  C   UNL     1     128.085 125.610 129.030  1.00  0.00    +0.001 A 
ATOM     11  C   UNL     1     128.846 123.710 127.752  1.00  0.00    +0.001 A 
ATOM     12  C   UNL     1     127.970 124.267 128.680  1.00  0.00    +0.000 A 
ENDBRANCH   6   7
ENDBRANCH   3   6
ENDBRANCH   2   3
ENDBRANCH   1   2
BRANCH   1  13
ATOM     13  C   UNL     1     133.019 124.989 122.680  1.00  0.00    -0.042 A 
ATOM     14  C   UNL     1     133.388 125.237 121.350  1.00  0.00    +0.004 A 
ATOM     15  C   UNL     1     133.785 124.089 123.440  1.00  0.00    +0.019 A 
ATOM     16  C   UNL     1     134.517 124.629 120.802  1.00  0.00    +0.001 A 
ATOM     17  C   UNL     1     134.925 123.477 122.894  1.00  0.00    +0.060 A 
ATOM     18  C   UNL     1     135.288 123.758 121.571  1.00  0.00    +0.016 A 
BRANCH  17  19
ATOM     19  C   UNL     1     135.774 122.529 123.667  1.00  0.00    +0.337 C 
ATOM     20  O   UNL     1     136.949 122.734 123.923  1.00  0.00    -0.246 OA
BRANCH  19  21
ATOM     21  O   UNL     1     135.050 121.448 124.052  1.00  0.00    -0.465 OA
ATOM     22  C   UNL     1     135.240 121.088 125.423  1.00  0.00    +0.282 C 
ENDBRANCH  19  21
ENDBRANCH  17  19
ENDBRANCH   1  13
TORSDOF 7
ENDMDL
MODEL 20
REMARK VINA RESULT:    -5.996      3.668      6.909
REMARK INTER + INTRA:         -10.923
REMARK INTER:                 -10.333
REMARK INTRA:                  -0.590
REMARK UNBOUND:                -2.474
REMARK SMILES COC(=O)c1cccc(CC[N@H+](C)Cc2ccccc2)c1
REMARK SMILES IDX 10 1 11 2 12 3 13 4 14 6 15 7 16 8 20 9 17 10 19 11 18 12
REMARK SMILES IDX 9 13 8 14 21 15 7 16 5 17 6 18 3 19 4 20 2 21 1 22
REMARK H PARENT 12 5
REMARK INDEX MAP 4 1 3 2 2 3 1 4 25 5 15 6 16 7 17 8 21 9 18 10 20 11 19 12
REMARK INDEX MAP 5 13 6 14 10 15 7 16 9 17 8 18 11 19 12 20 13 21 14 22
ROOT
ATOM      1  C   UNL     1     132.862 125.634 122.915  1.00  0.00    +0.097 C 
ENDROOT
BRANCH   1   2
ATOM      2  C   UNL     1     133.556 124.446 122.229  1.00  0.00    +0.267 C 
BRANCH   2   3
ATOM      3  N   UNL     1     135.044 124.610 121.995  1.00  0.00    -0.333 N 
ATOM      4  C   UNL     1     135.789 125.200 123.159  1.00  0.00    +0.333 C 
ATOM      5  H   UNL     1     135.403 123.650 121.914  1.00  0.00    +0.348 HD
BRANCH   3   6
ATOM      6  C   UNL     1     135.410 125.251 120.670  1.00  0.00    +0.298 C 
BRANCH   6   7
ATOM      7  C   UNL     1     135.036 124.387 119.494  1.00  0.00    +0.006 A 
ATOM      8  C   UNL     1     135.492 123.064 119.408  1.00  0.00    +0.009 A 
ATOM      9  C   UNL     1     134.203 124.887 118.481  1.00  0.00    +0.009 A 
ATOM     10  C   UNL     1     135.118 122.256 118.333  1.00  0.00    +0.001 A 
ATOM     11  C   UNL     1     133.831 124.076 117.408  1.00  0.00    +0.001 A 
ATOM     12  C   UNL     1     134.287 122.761 117.337  1.00  0.00    +0.000 A 
ENDBRANCH   6   7
ENDBRANCH   3   6
ENDBRANCH   2   3
ENDBRANCH   1   2
BRANCH   1  13
ATOM     13  C   UNL     1     132.220 125.334 124.247  1.00  0.00    -0.042 A 
ATOM     14  C   UNL     1     131.964 124.010 124.628  1.00  0.00    +0.004 A 
ATOM     15  C   UNL     1     131.841 126.374 125.112  1.00  0.00    +0.019 A 
ATOM     16  C   UNL     1     131.374 123.727 125.860  1.00  0.00    +0.001 A 
ATOM     17  C   UNL     1     131.251 126.096 126.356  1.00  0.00    +0.060 A 
ATOM     18  C   UNL     1     131.026 124.764 126.725  1.00  0.00    +0.016 A 
BRANCH  17  19
ATOM     19  C   UNL     1     130.847 127.166 127.309  1.00  0.00    +0.337 C 
ATOM     20  O   UNL     1     131.631 127.968 127.790  1.00  0.00    -0.246 OA
BRANCH  19  21
ATOM     21  O   UNL     1     129.510 127.124 127.532  1.00  0.00    -0.465 OA
ATOM     22  C   UNL     1     128.748 127.896 126.599  1.00  0.00    +0.282 C 
ENDBRANCH  19  21
ENDBRANCH  17  19
ENDBRANCH   1  13
TORSDOF 7
ENDMDL
