MODEL 1
REMARK VINA RESULT:    -7.301      0.000      0.000
REMARK INTER + INTRA:         -12.823
REMARK INTER:                 -10.289
REMARK INTRA:                  -2.534
REMARK UNBOUND:                -2.534
REMARK SMILES COC(=O)c1cccc(CCN(C)Cc2ccccc2)c1
REMARK SMILES IDX 10 1 11 2 12 3 13 4 14 5 15 6 16 7 20 8 17 9 19 10 18 11
REMARK SMILES IDX 9 12 8 13 21 14 7 15 5 16 6 17 3 18 4 19 2 20 1 21
REMARK H PARENT
REMARK INDEX MAP 4 1 3 2 2 3 1 4 15 5 16 6 17 7 21 8 18 9 20 10 19 11 5 12
REMARK INDEX MAP 6 13 10 14 7 15 9 16 8 17 11 18 12 19 13 20 14 21
ROOT
ATOM      1  C   UNL     1     136.352 122.203 124.536  1.00  0.00    +0.051 C 
ENDROOT
BRANCH   1   2
ATOM      2  C   UNL     1     135.031 121.493 124.893  1.00  0.00    +0.089 C 
BRANCH   2   3
ATOM      3  N   UNL     1     134.228 122.180 125.926  1.00  0.00    -0.302 NA
ATOM      4  C   UNL     1     134.240 121.440 127.191  1.00  0.00    +0.105 C 
BRANCH   3   5
ATOM      5  C   UNL     1     132.847 122.376 125.446  1.00  0.00    +0.119 C 
BRANCH   5   6
ATOM      6  C   UNL     1     132.667 123.642 124.634  1.00  0.00    -0.034 A 
ATOM      7  C   UNL     1     132.355 123.579 123.269  1.00  0.00    +0.005 A 
ATOM      8  C   UNL     1     132.836 124.900 125.234  1.00  0.00    +0.005 A 
ATOM      9  C   UNL     1     132.207 124.750 122.522  1.00  0.00    +0.000 A 
ATOM     10  C   UNL     1     132.688 126.069 124.486  1.00  0.00    +0.000 A 
ATOM     11  C   UNL     1     132.373 125.994 123.131  1.00  0.00    +0.000 A 
ENDBRANCH   5   6
ENDBRANCH   3   5
ENDBRANCH   2   3
ENDBRANCH   1   2
BRANCH   1  12
ATOM     12  C   UNL     1     136.174 123.370 123.591  1.00  0.00    -0.046 A 
ATOM     13  C   UNL     1     136.323 124.686 124.048  1.00  0.00    +0.004 A 
ATOM     14  C   UNL     1     135.835 123.153 122.248  1.00  0.00    +0.019 A 
ATOM     15  C   UNL     1     136.146 125.765 123.180  1.00  0.00    +0.001 A 
ATOM     16  C   UNL     1     135.654 124.232 121.370  1.00  0.00    +0.060 A 
ATOM     17  C   UNL     1     135.813 125.540 121.843  1.00  0.00    +0.016 A 
BRANCH  16  18
ATOM     18  C   UNL     1     135.295 123.932 119.956  1.00  0.00    +0.337 C 
ATOM     19  O   UNL     1     135.659 122.927 119.366  1.00  0.00    -0.246 OA
BRANCH  18  20
ATOM     20  O   UNL     1     134.524 124.920 119.436  1.00  0.00    -0.465 OA
ATOM     21  C   UNL     1     134.167 124.717 118.069  1.00  0.00    +0.282 C 
ENDBRANCH  18  20
ENDBRANCH  16  18
ENDBRANCH   1  12
TORSDOF 7
ENDMDL
MODEL 2
REMARK VINA RESULT:    -7.280      3.312      6.173
REMARK INTER + INTRA:         -12.793
REMARK INTER:                 -10.548
REMARK INTRA:                  -2.245
REMARK UNBOUND:                -2.534
REMARK SMILES COC(=O)c1cccc(CCN(C)Cc2ccccc2)c1
REMARK SMILES IDX 10 1 11 2 12 3 13 4 14 5 15 6 16 7 20 8 17 9 19 10 18 11
REMARK SMILES IDX 9 12 8 13 21 14 7 15 5 16 6 17 3 18 4 19 2 20 1 21
REMARK H PARENT
REMARK INDEX MAP 4 1 3 2 2 3 1 4 15 5 16 6 17 7 21 8 18 9 20 10 19 11 5 12
REMARK INDEX MAP 6 13 10 14 7 15 9 16 8 17 11 18 12 19 13 20 14 21
ROOT
ATOM      1  C   UNL     1     132.733 124.921 122.267  1.00  0.00    +0.051 C 
ENDROOT
BRANCH   1   2
ATOM      2  C   UNL     1     134.169 124.430 121.998  1.00  0.00    +0.089 C 
BRANCH   2   3
ATOM      3  N   UNL     1     135.185 124.983 122.918  1.00  0.00    -0.302 NA
ATOM      4  C   UNL     1     135.919 126.092 122.299  1.00  0.00    +0.105 C 
BRANCH   3   5
ATOM      5  C   UNL     1     136.112 123.919 123.347  1.00  0.00    +0.119 C 
BRANCH   5   6
ATOM      6  C   UNL     1     135.623 123.151 124.559  1.00  0.00    -0.034 A 
ATOM      7  C   UNL     1     135.388 121.771 124.486  1.00  0.00    +0.005 A 
ATOM      8  C   UNL     1     135.375 123.818 125.768  1.00  0.00    +0.005 A 
ATOM      9  C   UNL     1     134.922 121.072 125.602  1.00  0.00    +0.000 A 
ATOM     10  C   UNL     1     134.909 123.119 126.883  1.00  0.00    +0.000 A 
ATOM     11  C   UNL     1     134.684 121.747 126.799  1.00  0.00    +0.000 A 
ENDBRANCH   5   6
ENDBRANCH   3   5
ENDBRANCH   2   3
ENDBRANCH   1   2
BRANCH   1  12
ATOM     12  C   UNL     1     132.247 124.624 123.668  1.00  0.00    -0.046 A 
ATOM     13  C   UNL     1     132.006 123.305 124.074  1.00  0.00    +0.004 A 
ATOM     14  C   UNL     1     132.010 125.666 124.575  1.00  0.00    +0.019 A 
ATOM     15  C   UNL     1     131.544 123.030 125.362  1.00  0.00    +0.001 A 
ATOM     16  C   UNL     1     131.546 125.398 125.872  1.00  0.00    +0.060 A 
ATOM     17  C   UNL     1     131.315 124.073 126.261  1.00  0.00    +0.016 A 
BRANCH  16  18
ATOM     18  C   UNL     1     131.315 126.550 126.786  1.00  0.00    +0.337 C 
ATOM     19  O   UNL     1     131.960 127.586 126.743  1.00  0.00    -0.246 OA
BRANCH  18  20
ATOM     20  O   UNL     1     130.305 126.282 127.653  1.00  0.00    -0.465 OA
ATOM     21  C   UNL     1     129.797 127.434 128.324  1.00  0.00    +0.282 C 
ENDBRANCH  18  20
ENDBRANCH  16  18
ENDBRANCH   1  12
TORSDOF 7
ENDMDL
MODEL 3
REMARK VINA RESULT:    -7.026      1.656      3.736
REMARK INTER + INTRA:         -12.435
REMARK INTER:                 -11.149
REMARK INTRA:                  -1.285
REMARK UNBOUND:                -2.534
REMARK SMILES COC(=O)c1cccc(CCN(C)Cc2ccccc2)c1
REMARK SMILES IDX 10 1 11 2 12 3 13 4 14 5 15 6 16 7 20 8 17 9 19 10 18 11
REMARK SMILES IDX 9 12 8 13 21 14 7 15 5 16 6 17 3 18 4 19 2 20 1 21
REMARK H PARENT
REMARK INDEX MAP 4 1 3 2 2 3 1 4 15 5 16 6 17 7 21 8 18 9 20 10 19 11 5 12
REMARK INDEX MAP 6 13 10 14 7 15 9 16 8 17 11 18 12 19 13 20 14 21
ROOT
ATOM      1  C   UNL     1     133.220 125.906 122.878  1.00  0.00    +0.051 C 
ENDROOT
BRANCH   1   2
ATOM      2  C   UNL     1     133.439 125.762 124.397  1.00  0.00    +0.089 C 
BRANCH   2   3
ATOM      3  N   UNL     1     132.362 125.037 125.102  1.00  0.00    -0.302 NA
ATOM      4  C   UNL     1     131.236 125.924 125.414  1.00  0.00    +0.105 C 
BRANCH   3   5
ATOM      5  C   UNL     1     132.891 124.412 126.330  1.00  0.00    +0.119 C 
BRANCH   5   6
ATOM      6  C   UNL     1     133.858 123.278 126.057  1.00  0.00    -0.034 A 
ATOM      7  C   UNL     1     135.225 123.419 126.334  1.00  0.00    +0.005 A 
ATOM      8  C   UNL     1     133.399 122.075 125.498  1.00  0.00    +0.005 A 
ATOM      9  C   UNL     1     136.113 122.375 126.065  1.00  0.00    +0.000 A 
ATOM     10  C   UNL     1     134.288 121.033 125.229  1.00  0.00    +0.000 A 
ATOM     11  C   UNL     1     135.644 121.184 125.514  1.00  0.00    +0.000 A 
ENDBRANCH   5   6
ENDBRANCH   3   5
ENDBRANCH   2   3
ENDBRANCH   1   2
BRANCH   1  12
ATOM     12  C   UNL     1     134.089 124.986 122.053  1.00  0.00    -0.046 A 
ATOM     13  C   UNL     1     134.966 124.086 122.674  1.00  0.00    +0.004 A 
ATOM     14  C   UNL     1     134.048 125.032 120.652  1.00  0.00    +0.019 A 
ATOM     15  C   UNL     1     135.779 123.245 121.914  1.00  0.00    +0.001 A 
ATOM     16  C   UNL     1     134.863 124.189 119.881  1.00  0.00    +0.060 A 
ATOM     17  C   UNL     1     135.728 123.294 120.520  1.00  0.00    +0.016 A 
BRANCH  16  18
ATOM     18  C   UNL     1     134.770 124.289 118.398  1.00  0.00    +0.337 C 
ATOM     19  O   UNL     1     134.249 125.229 117.816  1.00  0.00    -0.246 OA
BRANCH  18  20
ATOM     20  O   UNL     1     135.334 123.207 117.807  1.00  0.00    -0.465 OA
ATOM     21  C   UNL     1     134.570 122.673 116.725  1.00  0.00    +0.282 C 
ENDBRANCH  18  20
ENDBRANCH  16  18
ENDBRANCH   1  12
TORSDOF 7
ENDMDL
MODEL 4
REMARK VINA RESULT:    -6.724      2.540      5.932
REMARK INTER + INTRA:         -12.009
REMARK INTER:                 -11.300
REMARK INTRA:                  -0.709
REMARK UNBOUND:                -2.534
REMARK SMILES COC(=O)c1cccc(CCN(C)Cc2ccccc2)c1
REMARK SMILES IDX 10 1 11 2 12 3 13 4 14 5 15 6 16 7 20 8 17 9 19 10 18 11
REMARK SMILES IDX 9 12 8 13 21 14 7 15 5 16 6 17 3 18 4 19 2 20 1 21
REMARK H PARENT
REMARK INDEX MAP 4 1 3 2 2 3 1 4 15 5 16 6 17 7 21 8 18 9 20 10 19 11 5 12
REMARK INDEX MAP 6 13 10 14 7 15 9 16 8 17 11 18 12 19 13 20 14 21
ROOT
ATOM      1  C   UNL     1     132.502 124.877 122.560  1.00  0.00    +0.051 C 
ENDROOT
BRANCH   1   2
ATOM      2  C   UNL     1     133.576 125.974 122.430  1.00  0.00    +0.089 C 
BRANCH   2   3
ATOM      3  N   UNL     1     134.770 125.571 121.658  1.00  0.00    -0.302 NA
ATOM      4  C   UNL     1     135.964 126.297 122.104  1.00  0.00    +0.105 C 
BRANCH   3   5
ATOM      5  C   UNL     1     134.537 125.782 120.217  1.00  0.00    +0.119 C 
BRANCH   5   6
ATOM      6  C   UNL     1     134.664 124.514 119.397  1.00  0.00    -0.034 A 
ATOM      7  C   UNL     1     134.168 124.455 118.088  1.00  0.00    +0.005 A 
ATOM      8  C   UNL     1     135.262 123.370 119.949  1.00  0.00    +0.005 A 
ATOM      9  C   UNL     1     134.274 123.277 117.343  1.00  0.00    +0.000 A 
ATOM     10  C   UNL     1     135.367 122.194 119.203  1.00  0.00    +0.000 A 
ATOM     11  C   UNL     1     134.874 122.149 117.902  1.00  0.00    +0.000 A 
ENDBRANCH   5   6
ENDBRANCH   3   5
ENDBRANCH   2   3
ENDBRANCH   1   2
BRANCH   1  12
ATOM     12  C   UNL     1     132.810 123.856 123.632  1.00  0.00    -0.046 A 
ATOM     13  C   UNL     1     131.808 123.418 124.508  1.00  0.00    +0.004 A 
ATOM     14  C   UNL     1     134.108 123.348 123.779  1.00  0.00    +0.019 A 
ATOM     15  C   UNL     1     132.094 122.486 125.507  1.00  0.00    +0.001 A 
ATOM     16  C   UNL     1     134.404 122.410 124.781  1.00  0.00    +0.060 A 
ATOM     17  C   UNL     1     133.389 121.981 125.644  1.00  0.00    +0.016 A 
BRANCH  16  18
ATOM     18  C   UNL     1     135.803 121.910 124.882  1.00  0.00    +0.337 C 
ATOM     19  O   UNL     1     136.732 122.370 124.236  1.00  0.00    -0.246 OA
BRANCH  18  20
ATOM     20  O   UNL     1     135.886 120.894 125.777  1.00  0.00    -0.465 OA
ATOM     21  C   UNL     1     136.903 121.073 126.764  1.00  0.00    +0.282 C 
ENDBRANCH  18  20
ENDBRANCH  16  18
ENDBRANCH   1  12
TORSDOF 7
ENDMDL
MODEL 5
REMARK VINA RESULT:    -6.699      3.143      5.876
REMARK INTER + INTRA:         -11.975
REMARK INTER:                 -11.362
REMARK INTRA:                  -0.613
REMARK UNBOUND:                -2.534
REMARK SMILES COC(=O)c1cccc(CCN(C)Cc2ccccc2)c1
REMARK SMILES IDX 10 1 11 2 12 3 13 4 14 5 15 6 16 7 20 8 17 9 19 10 18 11
REMARK SMILES IDX 9 12 8 13 21 14 7 15 5 16 6 17 3 18 4 19 2 20 1 21
REMARK H PARENT
REMARK INDEX MAP 4 1 3 2 2 3 1 4 15 5 16 6 17 7 21 8 18 9 20 10 19 11 5 12
REMARK INDEX MAP 6 13 10 14 7 15 9 16 8 17 11 18 12 19 13 20 14 21
ROOT
ATOM      1  C   UNL     1     135.843 124.343 125.837  1.00  0.00    +0.051 C 
ENDROOT
BRANCH   1   2
ATOM      2  C   UNL     1     136.354 124.237 124.387  1.00  0.00    +0.089 C 
BRANCH   2   3
ATOM      3  N   UNL     1     135.950 125.358 123.513  1.00  0.00    -0.302 NA
ATOM      4  C   UNL     1     135.873 126.617 124.261  1.00  0.00    +0.105 C 
BRANCH   3   5
ATOM      5  C   UNL     1     134.659 125.055 122.866  1.00  0.00    +0.119 C 
BRANCH   5   6
ATOM      6  C   UNL     1     134.800 124.608 121.425  1.00  0.00    -0.034 A 
ATOM      7  C   UNL     1     135.375 123.368 121.113  1.00  0.00    +0.005 A 
ATOM      8  C   UNL     1     134.379 125.443 120.379  1.00  0.00    +0.005 A 
ATOM      9  C   UNL     1     135.517 122.969 119.781  1.00  0.00    +0.000 A 
ATOM     10  C   UNL     1     134.522 125.044 119.049  1.00  0.00    +0.000 A 
ATOM     11  C   UNL     1     135.090 123.807 118.752  1.00  0.00    +0.000 A 
ENDBRANCH   5   6
ENDBRANCH   3   5
ENDBRANCH   2   3
ENDBRANCH   1   2
BRANCH   1  12
ATOM     12  C   UNL     1     134.678 123.427 126.134  1.00  0.00    -0.046 A 
ATOM     13  C   UNL     1     134.895 122.085 126.472  1.00  0.00    +0.004 A 
ATOM     14  C   UNL     1     133.361 123.902 126.055  1.00  0.00    +0.019 A 
ATOM     15  C   UNL     1     133.819 121.234 126.733  1.00  0.00    +0.001 A 
ATOM     16  C   UNL     1     132.274 123.053 126.316  1.00  0.00    +0.060 A 
ATOM     17  C   UNL     1     132.511 121.716 126.657  1.00  0.00    +0.016 A 
BRANCH  16  18
ATOM     18  C   UNL     1     130.901 123.620 126.215  1.00  0.00    +0.337 C 
ATOM     19  O   UNL     1     130.522 124.308 125.280  1.00  0.00    -0.246 OA
BRANCH  18  20
ATOM     20  O   UNL     1     130.155 123.267 127.292  1.00  0.00    -0.465 OA
ATOM     21  C   UNL     1     129.248 124.281 127.726  1.00  0.00    +0.282 C 
ENDBRANCH  18  20
ENDBRANCH  16  18
ENDBRANCH   1  12
TORSDOF 7
ENDMDL
MODEL 6
REMARK VINA RESULT:    -6.676      1.671      2.453
REMARK INTER + INTRA:         -11.942
REMARK INTER:                 -11.219
REMARK INTRA:                  -0.723
REMARK UNBOUND:                -2.534
REMARK SMILES COC(=O)c1cccc(CCN(C)Cc2ccccc2)c1
REMARK SMILES IDX 10 1 11 2 12 3 13 4 14 5 15 6 16 7 20 8 17 9 19 10 18 11
REMARK SMILES IDX 9 12 8 13 21 14 7 15 5 16 6 17 3 18 4 19 2 20 1 21
REMARK H PARENT
REMARK INDEX MAP 4 1 3 2 2 3 1 4 15 5 16 6 17 7 21 8 18 9 20 10 19 11 5 12
REMARK INDEX MAP 6 13 10 14 7 15 9 16 8 17 11 18 12 19 13 20 14 21
ROOT
ATOM      1  C   UNL     1     135.947 122.767 123.154  1.00  0.00    +0.051 C 
ENDROOT
BRANCH   1   2
ATOM      2  C   UNL     1     135.001 122.001 124.100  1.00  0.00    +0.089 C 
BRANCH   2   3
ATOM      3  N   UNL     1     134.767 122.665 125.399  1.00  0.00    -0.302 NA
ATOM      4  C   UNL     1     135.899 122.468 126.311  1.00  0.00    +0.105 C 
BRANCH   3   5
ATOM      5  C   UNL     1     133.516 122.169 126.004  1.00  0.00    +0.119 C 
BRANCH   5   6
ATOM      6  C   UNL     1     132.513 123.267 126.293  1.00  0.00    -0.034 A 
ATOM      7  C   UNL     1     132.856 124.615 126.121  1.00  0.00    +0.005 A 
ATOM      8  C   UNL     1     131.228 122.948 126.761  1.00  0.00    +0.005 A 
ATOM      9  C   UNL     1     131.932 125.622 126.405  1.00  0.00    +0.000 A 
ATOM     10  C   UNL     1     130.306 123.956 127.045  1.00  0.00    +0.000 A 
ATOM     11  C   UNL     1     130.658 125.292 126.866  1.00  0.00    +0.000 A 
ENDBRANCH   5   6
ENDBRANCH   3   5
ENDBRANCH   2   3
ENDBRANCH   1   2
BRANCH   1  12
ATOM     12  C   UNL     1     135.241 123.799 122.303  1.00  0.00    -0.046 A 
ATOM     13  C   UNL     1     134.560 124.868 122.898  1.00  0.00    +0.004 A 
ATOM     14  C   UNL     1     135.241 123.688 120.905  1.00  0.00    +0.019 A 
ATOM     15  C   UNL     1     133.897 125.814 122.114  1.00  0.00    +0.001 A 
ATOM     16  C   UNL     1     134.576 124.635 120.110  1.00  0.00    +0.060 A 
ATOM     17  C   UNL     1     133.905 125.700 120.723  1.00  0.00    +0.016 A 
BRANCH  16  18
ATOM     18  C   UNL     1     134.615 124.460 118.632  1.00  0.00    +0.337 C 
ATOM     19  O   UNL     1     134.307 125.337 117.840  1.00  0.00    -0.246 OA
BRANCH  18  20
ATOM     20  O   UNL     1     135.031 123.210 118.307  1.00  0.00    -0.465 OA
ATOM     21  C   UNL     1     134.956 122.919 116.911  1.00  0.00    +0.282 C 
ENDBRANCH  18  20
ENDBRANCH  16  18
ENDBRANCH   1  12
TORSDOF 7
ENDMDL
MODEL 7
REMARK VINA RESULT:    -6.516      3.979      6.763
REMARK INTER + INTRA:         -11.716
REMARK INTER:                 -11.105
REMARK INTRA:                  -0.611
REMARK UNBOUND:                -2.534
REMARK SMILES COC(=O)c1cccc(CCN(C)Cc2ccccc2)c1
REMARK SMILES IDX 10 1 11 2 12 3 13 4 14 5 15 6 16 7 20 8 17 9 19 10 18 11
REMARK SMILES IDX 9 12 8 13 21 14 7 15 5 16 6 17 3 18 4 19 2 20 1 21
REMARK H PARENT
REMARK INDEX MAP 4 1 3 2 2 3 1 4 15 5 16 6 17 7 21 8 18 9 20 10 19 11 5 12
REMARK INDEX MAP 6 13 10 14 7 15 9 16 8 17 11 18 12 19 13 20 14 21
ROOT
ATOM      1  C   UNL     1     133.144 124.396 125.565  1.00  0.00    +0.051 C 
ENDROOT
BRANCH   1   2
ATOM      2  C   UNL     1     134.125 123.498 126.345  1.00  0.00    +0.089 C 
BRANCH   2   3
ATOM      3  N   UNL     1     135.069 122.744 125.495  1.00  0.00    -0.302 NA
ATOM      4  C   UNL     1     135.523 121.518 126.159  1.00  0.00    +0.105 C 
BRANCH   3   5
ATOM      5  C   UNL     1     136.215 123.597 125.130  1.00  0.00    +0.119 C 
BRANCH   5   6
ATOM      6  C   UNL     1     136.189 124.053 123.686  1.00  0.00    -0.034 A 
ATOM      7  C   UNL     1     136.299 125.412 123.361  1.00  0.00    +0.005 A 
ATOM      8  C   UNL     1     136.027 123.119 122.650  1.00  0.00    +0.005 A 
ATOM      9  C   UNL     1     136.257 125.827 122.028  1.00  0.00    +0.000 A 
ATOM     10  C   UNL     1     135.985 123.536 121.319  1.00  0.00    +0.000 A 
ATOM     11  C   UNL     1     136.101 124.889 121.009  1.00  0.00    +0.000 A 
ENDBRANCH   5   6
ENDBRANCH   3   5
ENDBRANCH   2   3
ENDBRANCH   1   2
BRANCH   1  12
ATOM     12  C   UNL     1     131.886 124.726 126.336  1.00  0.00    -0.046 A 
ATOM     13  C   UNL     1     130.961 123.723 126.654  1.00  0.00    +0.004 A 
ATOM     14  C   UNL     1     131.615 126.045 126.726  1.00  0.00    +0.019 A 
ATOM     15  C   UNL     1     129.793 124.028 127.353  1.00  0.00    +0.001 A 
ATOM     16  C   UNL     1     130.442 126.360 127.430  1.00  0.00    +0.060 A 
ATOM     17  C   UNL     1     129.533 125.343 127.743  1.00  0.00    +0.016 A 
BRANCH  16  18
ATOM     18  C   UNL     1     130.215 127.780 127.815  1.00  0.00    +0.337 C 
ATOM     19  O   UNL     1     129.614 128.581 127.116  1.00  0.00    -0.246 OA
BRANCH  18  20
ATOM     20  O   UNL     1     130.764 128.043 129.028  1.00  0.00    -0.465 OA
ATOM     21  C   UNL     1     131.859 128.958 128.982  1.00  0.00    +0.282 C 
ENDBRANCH  18  20
ENDBRANCH  16  18
ENDBRANCH   1  12
TORSDOF 7
ENDMDL
MODEL 8
REMARK VINA RESULT:    -6.515      3.700      5.810
REMARK INTER + INTRA:         -11.715
REMARK INTER:                 -11.183
REMARK INTRA:                  -0.532
REMARK UNBOUND:                -2.534
REMARK SMILES COC(=O)c1cccc(CCN(C)Cc2ccccc2)c1
REMARK SMILES IDX 10 1 11 2 12 3 13 4 14 5 15 6 16 7 20 8 17 9 19 10 18 11
REMARK SMILES IDX 9 12 8 13 21 14 7 15 5 16 6 17 3 18 4 19 2 20 1 21
REMARK H PARENT
REMARK INDEX MAP 4 1 3 2 2 3 1 4 15 5 16 6 17 7 21 8 18 9 20 10 19 11 5 12
REMARK INDEX MAP 6 13 10 14 7 15 9 16 8 17 11 18 12 19 13 20 14 21
ROOT
ATOM      1  C   UNL     1     131.387 124.900 125.960  1.00  0.00    +0.051 C 
ENDROOT
BRANCH   1   2
ATOM      2  C   UNL     1     131.835 126.113 125.121  1.00  0.00    +0.089 C 
BRANCH   2   3
ATOM      3  N   UNL     1     131.131 127.371 125.443  1.00  0.00    -0.302 NA
ATOM      4  C   UNL     1     131.510 127.872 126.768  1.00  0.00    +0.105 C 
BRANCH   3   5
ATOM      5  C   UNL     1     129.671 127.170 125.358  1.00  0.00    +0.119 C 
BRANCH   5   6
ATOM      6  C   UNL     1     129.038 127.868 124.172  1.00  0.00    -0.034 A 
ATOM      7  C   UNL     1     129.428 129.165 123.811  1.00  0.00    +0.005 A 
ATOM      8  C   UNL     1     128.030 127.231 123.431  1.00  0.00    +0.005 A 
ATOM      9  C   UNL     1     128.828 129.808 122.726  1.00  0.00    +0.000 A 
ATOM     10  C   UNL     1     127.431 127.876 122.347  1.00  0.00    +0.000 A 
ATOM     11  C   UNL     1     127.831 129.163 121.995  1.00  0.00    +0.000 A 
ENDBRANCH   5   6
ENDBRANCH   3   5
ENDBRANCH   2   3
ENDBRANCH   1   2
BRANCH   1  12
ATOM     12  C   UNL     1     132.401 123.778 125.987  1.00  0.00    -0.046 A 
ATOM     13  C   UNL     1     132.038 122.500 126.432  1.00  0.00    +0.004 A 
ATOM     14  C   UNL     1     133.726 124.006 125.588  1.00  0.00    +0.019 A 
ATOM     15  C   UNL     1     132.976 121.467 126.470  1.00  0.00    +0.001 A 
ATOM     16  C   UNL     1     134.675 122.973 125.624  1.00  0.00    +0.060 A 
ATOM     17  C   UNL     1     134.292 121.701 126.066  1.00  0.00    +0.016 A 
BRANCH  16  18
ATOM     18  C   UNL     1     136.064 123.282 125.186  1.00  0.00    +0.337 C 
ATOM     19  O   UNL     1     136.996 122.501 125.299  1.00  0.00    -0.246 OA
BRANCH  18  20
ATOM     20  O   UNL     1     136.135 124.529 124.657  1.00  0.00    -0.465 OA
ATOM     21  C   UNL     1     137.101 125.371 125.287  1.00  0.00    +0.282 C 
ENDBRANCH  18  20
ENDBRANCH  16  18
ENDBRANCH   1  12
TORSDOF 7
ENDMDL
MODEL 9
REMARK VINA RESULT:    -6.499      3.205      6.277
REMARK INTER + INTRA:         -11.692
REMARK INTER:                 -11.593
REMARK INTRA:                  -0.099
REMARK UNBOUND:                -2.534
REMARK SMILES COC(=O)c1cccc(CCN(C)Cc2ccccc2)c1
REMARK SMILES IDX 10 1 11 2 12 3 13 4 14 5 15 6 16 7 20 8 17 9 19 10 18 11
REMARK SMILES IDX 9 12 8 13 21 14 7 15 5 16 6 17 3 18 4 19 2 20 1 21
REMARK H PARENT
REMARK INDEX MAP 4 1 3 2 2 3 1 4 15 5 16 6 17 7 21 8 18 9 20 10 19 11 5 12
REMARK INDEX MAP 6 13 10 14 7 15 9 16 8 17 11 18 12 19 13 20 14 21
ROOT
ATOM      1  C   UNL     1     136.130 124.059 123.331  1.00  0.00    +0.051 C 
ENDROOT
BRANCH   1   2
ATOM      2  C   UNL     1     136.115 123.441 121.919  1.00  0.00    +0.089 C 
BRANCH   2   3
ATOM      3  N   UNL     1     136.258 124.421 120.822  1.00  0.00    -0.302 NA
ATOM      4  C   UNL     1     136.547 125.762 121.339  1.00  0.00    +0.105 C 
BRANCH   3   5
ATOM      5  C   UNL     1     135.040 124.432 119.990  1.00  0.00    +0.119 C 
BRANCH   5   6
ATOM      6  C   UNL     1     135.019 123.340 118.940  1.00  0.00    -0.034 A 
ATOM      7  C   UNL     1     134.719 123.636 117.604  1.00  0.00    +0.005 A 
ATOM      8  C   UNL     1     135.279 122.007 119.299  1.00  0.00    +0.005 A 
ATOM      9  C   UNL     1     134.686 122.621 116.645  1.00  0.00    +0.000 A 
ATOM     10  C   UNL     1     135.245 120.995 118.339  1.00  0.00    +0.000 A 
ATOM     11  C   UNL     1     134.949 121.302 117.013  1.00  0.00    +0.000 A 
ENDBRANCH   5   6
ENDBRANCH   3   5
ENDBRANCH   2   3
ENDBRANCH   1   2
BRANCH   1  12
ATOM     12  C   UNL     1     135.528 123.162 124.388  1.00  0.00    -0.046 A 
ATOM     13  C   UNL     1     136.202 122.008 124.812  1.00  0.00    +0.004 A 
ATOM     14  C   UNL     1     134.276 123.458 124.946  1.00  0.00    +0.019 A 
ATOM     15  C   UNL     1     135.642 121.171 125.778  1.00  0.00    +0.001 A 
ATOM     16  C   UNL     1     133.707 122.621 125.918  1.00  0.00    +0.060 A 
ATOM     17  C   UNL     1     134.397 121.476 126.332  1.00  0.00    +0.016 A 
BRANCH  16  18
ATOM     18  C   UNL     1     132.375 122.994 126.470  1.00  0.00    +0.337 C 
ATOM     19  O   UNL     1     131.540 122.177 126.827  1.00  0.00    -0.246 OA
BRANCH  18  20
ATOM     20  O   UNL     1     132.233 124.343 126.513  1.00  0.00    -0.465 OA
ATOM     21  C   UNL     1     130.917 124.797 126.197  1.00  0.00    +0.282 C 
ENDBRANCH  18  20
ENDBRANCH  16  18
ENDBRANCH   1  12
TORSDOF 7
ENDMDL
MODEL 10
REMARK VINA RESULT:    -6.440      3.090      5.464
REMARK INTER + INTRA:         -11.610
REMARK INTER:                 -10.016
REMARK INTRA:                  -1.594
REMARK UNBOUND:                -2.534
REMARK SMILES COC(=O)c1cccc(CCN(C)Cc2ccccc2)c1
REMARK SMILES IDX 10 1 11 2 12 3 13 4 14 5 15 6 16 7 20 8 17 9 19 10 18 11
REMARK SMILES IDX 9 12 8 13 21 14 7 15 5 16 6 17 3 18 4 19 2 20 1 21
REMARK H PARENT
REMARK INDEX MAP 4 1 3 2 2 3 1 4 15 5 16 6 17 7 21 8 18 9 20 10 19 11 5 12
REMARK INDEX MAP 6 13 10 14 7 15 9 16 8 17 11 18 12 19 13 20 14 21
ROOT
ATOM      1  C   UNL     1     132.975 122.250 126.346  1.00  0.00    +0.051 C 
ENDROOT
BRANCH   1   2
ATOM      2  C   UNL     1     134.088 121.494 125.594  1.00  0.00    +0.089 C 
BRANCH   2   3
ATOM      3  N   UNL     1     135.353 121.364 126.348  1.00  0.00    -0.302 NA
ATOM      4  C   UNL     1     135.314 122.135 127.595  1.00  0.00    +0.105 C 
BRANCH   3   5
ATOM      5  C   UNL     1     136.489 121.786 125.507  1.00  0.00    +0.119 C 
BRANCH   5   6
ATOM      6  C   UNL     1     136.136 122.889 124.531  1.00  0.00    -0.034 A 
ATOM      7  C   UNL     1     136.090 124.226 124.947  1.00  0.00    +0.005 A 
ATOM      8  C   UNL     1     135.825 122.582 123.197  1.00  0.00    +0.005 A 
ATOM      9  C   UNL     1     135.748 125.237 124.045  1.00  0.00    +0.000 A 
ATOM     10  C   UNL     1     135.483 123.593 122.297  1.00  0.00    +0.000 A 
ATOM     11  C   UNL     1     135.445 124.919 122.722  1.00  0.00    +0.000 A 
ENDBRANCH   5   6
ENDBRANCH   3   5
ENDBRANCH   2   3
ENDBRANCH   1   2
BRANCH   1  12
ATOM     12  C   UNL     1     132.530 123.516 125.650  1.00  0.00    -0.046 A 
ATOM     13  C   UNL     1     132.388 123.551 124.256  1.00  0.00    +0.004 A 
ATOM     14  C   UNL     1     132.272 124.681 126.386  1.00  0.00    +0.019 A 
ATOM     15  C   UNL     1     131.991 124.723 123.610  1.00  0.00    +0.001 A 
ATOM     16  C   UNL     1     131.872 125.863 125.744  1.00  0.00    +0.060 A 
ATOM     17  C   UNL     1     131.732 125.877 124.351  1.00  0.00    +0.016 A 
BRANCH  16  18
ATOM     18  C   UNL     1     131.614 127.065 126.585  1.00  0.00    +0.337 C 
ATOM     19  O   UNL     1     132.289 128.082 126.534  1.00  0.00    -0.246 OA
BRANCH  18  20
ATOM     20  O   UNL     1     130.545 126.864 127.396  1.00  0.00    -0.465 OA
ATOM     21  C   UNL     1     129.551 127.884 127.307  1.00  0.00    +0.282 C 
ENDBRANCH  18  20
ENDBRANCH  16  18
ENDBRANCH   1  12
TORSDOF 7
ENDMDL
MODEL 11
REMARK VINA RESULT:    -6.367      3.295      6.138
REMARK INTER + INTRA:         -11.506
REMARK INTER:                 -10.414
REMARK INTRA:                  -1.092
REMARK UNBOUND:                -2.534
REMARK SMILES COC(=O)c1cccc(CCN(C)Cc2ccccc2)c1
REMARK SMILES IDX 10 1 11 2 12 3 13 4 14 5 15 6 16 7 20 8 17 9 19 10 18 11
REMARK SMILES IDX 9 12 8 13 21 14 7 15 5 16 6 17 3 18 4 19 2 20 1 21
REMARK H PARENT
REMARK INDEX MAP 4 1 3 2 2 3 1 4 15 5 16 6 17 7 21 8 18 9 20 10 19 11 5 12
REMARK INDEX MAP 6 13 10 14 7 15 9 16 8 17 11 18 12 19 13 20 14 21
ROOT
ATOM      1  C   UNL     1     133.355 125.472 122.882  1.00  0.00    +0.051 C 
ENDROOT
BRANCH   1   2
ATOM      2  C   UNL     1     134.849 125.653 123.215  1.00  0.00    +0.089 C 
BRANCH   2   3
ATOM      3  N   UNL     1     135.748 124.714 122.512  1.00  0.00    -0.302 NA
ATOM      4  C   UNL     1     136.044 125.175 121.152  1.00  0.00    +0.105 C 
BRANCH   3   5
ATOM      5  C   UNL     1     135.154 123.364 122.490  1.00  0.00    +0.119 C 
BRANCH   5   6
ATOM      6  C   UNL     1     135.353 122.600 123.783  1.00  0.00    -0.034 A 
ATOM      7  C   UNL     1     136.591 122.610 124.439  1.00  0.00    +0.005 A 
ATOM      8  C   UNL     1     134.301 121.848 124.331  1.00  0.00    +0.005 A 
ATOM      9  C   UNL     1     136.772 121.889 125.622  1.00  0.00    +0.000 A 
ATOM     10  C   UNL     1     134.483 121.129 125.513  1.00  0.00    +0.000 A 
ATOM     11  C   UNL     1     135.718 121.150 126.158  1.00  0.00    +0.000 A 
ENDBRANCH   5   6
ENDBRANCH   3   5
ENDBRANCH   2   3
ENDBRANCH   1   2
BRANCH   1  12
ATOM     12  C   UNL     1     132.450 125.592 124.087  1.00  0.00    -0.046 A 
ATOM     13  C   UNL     1     132.829 125.044 125.320  1.00  0.00    +0.004 A 
ATOM     14  C   UNL     1     131.208 126.235 123.985  1.00  0.00    +0.019 A 
ATOM     15  C   UNL     1     131.989 125.141 126.430  1.00  0.00    +0.001 A 
ATOM     16  C   UNL     1     130.358 126.337 125.097  1.00  0.00    +0.060 A 
ATOM     17  C   UNL     1     130.756 125.788 126.321  1.00  0.00    +0.016 A 
BRANCH  16  18
ATOM     18  C   UNL     1     129.054 127.033 124.920  1.00  0.00    +0.337 C 
ATOM     19  O   UNL     1     128.612 127.852 125.712  1.00  0.00    -0.246 OA
BRANCH  18  20
ATOM     20  O   UNL     1     128.445 126.630 123.776  1.00  0.00    -0.465 OA
ATOM     21  C   UNL     1     127.838 127.691 123.038  1.00  0.00    +0.282 C 
ENDBRANCH  18  20
ENDBRANCH  16  18
ENDBRANCH   1  12
TORSDOF 7
ENDMDL
MODEL 12
REMARK VINA RESULT:    -6.342      2.118      3.563
REMARK INTER + INTRA:         -11.472
REMARK INTER:                 -10.566
REMARK INTRA:                  -0.906
REMARK UNBOUND:                -2.534
REMARK SMILES COC(=O)c1cccc(CCN(C)Cc2ccccc2)c1
REMARK SMILES IDX 10 1 11 2 12 3 13 4 14 5 15 6 16 7 20 8 17 9 19 10 18 11
REMARK SMILES IDX 9 12 8 13 21 14 7 15 5 16 6 17 3 18 4 19 2 20 1 21
REMARK H PARENT
REMARK INDEX MAP 4 1 3 2 2 3 1 4 15 5 16 6 17 7 21 8 18 9 20 10 19 11 5 12
REMARK INDEX MAP 6 13 10 14 7 15 9 16 8 17 11 18 12 19 13 20 14 21
ROOT
ATOM      1  C   UNL     1     136.054 122.953 122.136  1.00  0.00    +0.051 C 
ENDROOT
BRANCH   1   2
ATOM      2  C   UNL     1     134.974 122.380 123.076  1.00  0.00    +0.089 C 
BRANCH   2   3
ATOM      3  N   UNL     1     135.360 122.348 124.501  1.00  0.00    -0.302 NA
ATOM      4  C   UNL     1     135.009 121.066 125.121  1.00  0.00    +0.105 C 
BRANCH   3   5
ATOM      5  C   UNL     1     134.727 123.468 125.223  1.00  0.00    +0.119 C 
BRANCH   5   6
ATOM      6  C   UNL     1     135.526 124.754 125.155  1.00  0.00    -0.034 A 
ATOM      7  C   UNL     1     134.942 125.935 124.677  1.00  0.00    +0.005 A 
ATOM      8  C   UNL     1     136.873 124.773 125.549  1.00  0.00    +0.005 A 
ATOM      9  C   UNL     1     135.690 127.113 124.602  1.00  0.00    +0.000 A 
ATOM     10  C   UNL     1     137.618 125.950 125.473  1.00  0.00    +0.000 A 
ATOM     11  C   UNL     1     137.026 127.119 125.001  1.00  0.00    +0.000 A 
ENDBRANCH   5   6
ENDBRANCH   3   5
ENDBRANCH   2   3
ENDBRANCH   1   2
BRANCH   1  12
ATOM     12  C   UNL     1     135.496 123.526 120.854  1.00  0.00    -0.046 A 
ATOM     13  C   UNL     1     134.934 124.810 120.833  1.00  0.00    +0.004 A 
ATOM     14  C   UNL     1     135.512 122.774 119.671  1.00  0.00    +0.019 A 
ATOM     15  C   UNL     1     134.406 125.336 119.653  1.00  0.00    +0.001 A 
ATOM     16  C   UNL     1     134.982 123.296 118.481  1.00  0.00    +0.060 A 
ATOM     17  C   UNL     1     134.430 124.582 118.478  1.00  0.00    +0.016 A 
BRANCH  16  18
ATOM     18  C   UNL     1     135.031 122.445 117.260  1.00  0.00    +0.337 C 
ATOM     19  O   UNL     1     135.011 122.893 116.124  1.00  0.00    -0.246 OA
BRANCH  18  20
ATOM     20  O   UNL     1     135.098 121.131 117.592  1.00  0.00    -0.465 OA
ATOM     21  C   UNL     1     135.353 120.266 116.485  1.00  0.00    +0.282 C 
ENDBRANCH  18  20
ENDBRANCH  16  18
ENDBRANCH   1  12
TORSDOF 7
ENDMDL
MODEL 13
REMARK VINA RESULT:    -6.320      2.018      3.251
REMARK INTER + INTRA:         -11.440
REMARK INTER:                 -11.125
REMARK INTRA:                  -0.315
REMARK UNBOUND:                -2.534
REMARK SMILES COC(=O)c1cccc(CCN(C)Cc2ccccc2)c1
REMARK SMILES IDX 10 1 11 2 12 3 13 4 14 5 15 6 16 7 20 8 17 9 19 10 18 11
REMARK SMILES IDX 9 12 8 13 21 14 7 15 5 16 6 17 3 18 4 19 2 20 1 21
REMARK H PARENT
REMARK INDEX MAP 4 1 3 2 2 3 1 4 15 5 16 6 17 7 21 8 18 9 20 10 19 11 5 12
REMARK INDEX MAP 6 13 10 14 7 15 9 16 8 17 11 18 12 19 13 20 14 21
ROOT
ATOM      1  C   UNL     1     136.078 123.326 122.259  1.00  0.00    +0.051 C 
ENDROOT
BRANCH   1   2
ATOM      2  C   UNL     1     135.032 123.162 123.379  1.00  0.00    +0.089 C 
BRANCH   2   3
ATOM      3  N   UNL     1     135.109 124.187 124.441  1.00  0.00    -0.302 NA
ATOM      4  C   UNL     1     136.446 124.787 124.508  1.00  0.00    +0.105 C 
BRANCH   3   5
ATOM      5  C   UNL     1     134.734 123.599 125.741  1.00  0.00    +0.119 C 
BRANCH   5   6
ATOM      6  C   UNL     1     133.291 123.860 126.124  1.00  0.00    -0.034 A 
ATOM      7  C   UNL     1     132.436 122.802 126.459  1.00  0.00    +0.005 A 
ATOM      8  C   UNL     1     132.784 125.169 126.123  1.00  0.00    +0.005 A 
ATOM      9  C   UNL     1     131.103 123.048 126.795  1.00  0.00    +0.000 A 
ATOM     10  C   UNL     1     131.451 125.413 126.458  1.00  0.00    +0.000 A 
ATOM     11  C   UNL     1     130.612 124.353 126.795  1.00  0.00    +0.000 A 
ENDBRANCH   5   6
ENDBRANCH   3   5
ENDBRANCH   2   3
ENDBRANCH   1   2
BRANCH   1  12
ATOM     12  C   UNL     1     135.504 123.878 120.974  1.00  0.00    -0.046 A 
ATOM     13  C   UNL     1     134.991 125.181 120.925  1.00  0.00    +0.004 A 
ATOM     14  C   UNL     1     135.457 123.087 119.818  1.00  0.00    +0.019 A 
ATOM     15  C   UNL     1     134.449 125.688 119.743  1.00  0.00    +0.001 A 
ATOM     16  C   UNL     1     134.912 123.590 118.625  1.00  0.00    +0.060 A 
ATOM     17  C   UNL     1     134.410 124.896 118.595  1.00  0.00    +0.016 A 
BRANCH  16  18
ATOM     18  C   UNL     1     134.893 122.698 117.433  1.00  0.00    +0.337 C 
ATOM     19  O   UNL     1     135.310 123.030 116.335  1.00  0.00    -0.246 OA
BRANCH  18  20
ATOM     20  O   UNL     1     134.354 121.492 117.744  1.00  0.00    -0.465 OA
ATOM     21  C   UNL     1     135.317 120.447 117.885  1.00  0.00    +0.282 C 
ENDBRANCH  18  20
ENDBRANCH  16  18
ENDBRANCH   1  12
TORSDOF 7
ENDMDL
MODEL 14
REMARK VINA RESULT:    -6.312      2.558      4.098
REMARK INTER + INTRA:         -11.429
REMARK INTER:                 -11.064
REMARK INTRA:                  -0.365
REMARK UNBOUND:                -2.534
REMARK SMILES COC(=O)c1cccc(CCN(C)Cc2ccccc2)c1
REMARK SMILES IDX 10 1 11 2 12 3 13 4 14 5 15 6 16 7 20 8 17 9 19 10 18 11
REMARK SMILES IDX 9 12 8 13 21 14 7 15 5 16 6 17 3 18 4 19 2 20 1 21
REMARK H PARENT
REMARK INDEX MAP 4 1 3 2 2 3 1 4 15 5 16 6 17 7 21 8 18 9 20 10 19 11 5 12
REMARK INDEX MAP 6 13 10 14 7 15 9 16 8 17 11 18 12 19 13 20 14 21
ROOT
ATOM      1  C   UNL     1     133.654 126.045 122.286  1.00  0.00    +0.051 C 
ENDROOT
BRANCH   1   2
ATOM      2  C   UNL     1     133.736 125.743 123.795  1.00  0.00    +0.089 C 
BRANCH   2   3
ATOM      3  N   UNL     1     132.432 125.469 124.434  1.00  0.00    -0.302 NA
ATOM      4  C   UNL     1     131.362 126.271 123.831  1.00  0.00    +0.105 C 
BRANCH   3   5
ATOM      5  C   UNL     1     132.517 125.719 125.886  1.00  0.00    +0.119 C 
BRANCH   5   6
ATOM      6  C   UNL     1     131.229 125.413 126.624  1.00  0.00    -0.034 A 
ATOM      7  C   UNL     1     130.476 126.440 127.207  1.00  0.00    +0.005 A 
ATOM      8  C   UNL     1     130.786 124.087 126.755  1.00  0.00    +0.005 A 
ATOM      9  C   UNL     1     129.299 126.149 127.901  1.00  0.00    +0.000 A 
ATOM     10  C   UNL     1     129.609 123.798 127.448  1.00  0.00    +0.000 A 
ATOM     11  C   UNL     1     128.867 124.828 128.020  1.00  0.00    +0.000 A 
ENDBRANCH   5   6
ENDBRANCH   3   5
ENDBRANCH   2   3
ENDBRANCH   1   2
BRANCH   1  12
ATOM     12  C   UNL     1     134.331 125.002 121.425  1.00  0.00    -0.046 A 
ATOM     13  C   UNL     1     135.155 124.027 122.003  1.00  0.00    +0.004 A 
ATOM     14  C   UNL     1     134.162 125.008 120.034  1.00  0.00    +0.019 A 
ATOM     15  C   UNL     1     135.792 123.072 121.209  1.00  0.00    +0.001 A 
ATOM     16  C   UNL     1     134.799 124.052 119.228  1.00  0.00    +0.060 A 
ATOM     17  C   UNL     1     135.614 123.082 119.824  1.00  0.00    +0.016 A 
BRANCH  16  18
ATOM     18  C   UNL     1     134.576 124.114 117.757  1.00  0.00    +0.337 C 
ATOM     19  O   UNL     1     133.648 124.716 117.240  1.00  0.00    -0.246 OA
BRANCH  18  20
ATOM     20  O   UNL     1     135.536 123.418 117.096  1.00  0.00    -0.465 OA
ATOM     21  C   UNL     1     135.023 122.419 116.215  1.00  0.00    +0.282 C 
ENDBRANCH  18  20
ENDBRANCH  16  18
ENDBRANCH   1  12
TORSDOF 7
ENDMDL
MODEL 15
REMARK VINA RESULT:    -6.300      3.514      5.401
REMARK INTER + INTRA:         -11.412
REMARK INTER:                 -10.809
REMARK INTRA:                  -0.603
REMARK UNBOUND:                -2.534
REMARK SMILES COC(=O)c1cccc(CCN(C)Cc2ccccc2)c1
REMARK SMILES IDX 10 1 11 2 12 3 13 4 14 5 15 6 16 7 20 8 17 9 19 10 18 11
REMARK SMILES IDX 9 12 8 13 21 14 7 15 5 16 6 17 3 18 4 19 2 20 1 21
REMARK H PARENT
REMARK INDEX MAP 4 1 3 2 2 3 1 4 15 5 16 6 17 7 21 8 18 9 20 10 19 11 5 12
REMARK INDEX MAP 6 13 10 14 7 15 9 16 8 17 11 18 12 19 13 20 14 21
ROOT
ATOM      1  C   UNL     1     132.277 124.113 123.041  1.00  0.00    +0.051 C 
ENDROOT
BRANCH   1   2
ATOM      2  C   UNL     1     132.057 125.615 123.312  1.00  0.00    +0.089 C 
BRANCH   2   3
ATOM      3  N   UNL     1     130.999 125.907 124.302  1.00  0.00    -0.302 NA
ATOM      4  C   UNL     1     130.482 127.270 124.144  1.00  0.00    +0.105 C 
BRANCH   3   5
ATOM      5  C   UNL     1     131.513 125.698 125.669  1.00  0.00    +0.119 C 
BRANCH   5   6
ATOM      6  C   UNL     1     130.419 125.530 126.703  1.00  0.00    -0.034 A 
ATOM      7  C   UNL     1     130.131 126.555 127.614  1.00  0.00    +0.005 A 
ATOM      8  C   UNL     1     129.692 124.331 126.777  1.00  0.00    +0.005 A 
ATOM      9  C   UNL     1     129.131 126.387 128.575  1.00  0.00    +0.000 A 
ATOM     10  C   UNL     1     128.694 124.165 127.739  1.00  0.00    +0.000 A 
ATOM     11  C   UNL     1     128.414 125.193 128.636  1.00  0.00    +0.000 A 
ENDBRANCH   5   6
ENDBRANCH   3   5
ENDBRANCH   2   3
ENDBRANCH   1   2
BRANCH   1  12
ATOM     12  C   UNL     1     133.732 123.704 123.066  1.00  0.00    -0.046 A 
ATOM     13  C   UNL     1     134.559 123.942 121.960  1.00  0.00    +0.004 A 
ATOM     14  C   UNL     1     134.272 123.061 124.189  1.00  0.00    +0.019 A 
ATOM     15  C   UNL     1     135.899 123.553 121.977  1.00  0.00    +0.001 A 
ATOM     16  C   UNL     1     135.618 122.666 124.213  1.00  0.00    +0.060 A 
ATOM     17  C   UNL     1     136.430 122.917 123.101  1.00  0.00    +0.016 A 
BRANCH  16  18
ATOM     18  C   UNL     1     136.128 121.987 125.437  1.00  0.00    +0.337 C 
ATOM     19  O   UNL     1     137.312 121.776 125.648  1.00  0.00    -0.246 OA
BRANCH  18  20
ATOM     20  O   UNL     1     135.104 121.648 126.260  1.00  0.00    -0.465 OA
ATOM     21  C   UNL     1     135.257 122.117 127.600  1.00  0.00    +0.282 C 
ENDBRANCH  18  20
ENDBRANCH  16  18
ENDBRANCH   1  12
TORSDOF 7
ENDMDL
MODEL 16
REMARK VINA RESULT:    -6.223      2.277      4.556
REMARK INTER + INTRA:         -11.304
REMARK INTER:                 -10.658
REMARK INTRA:                  -0.646
REMARK UNBOUND:                -2.534
REMARK SMILES COC(=O)c1cccc(CCN(C)Cc2ccccc2)c1
REMARK SMILES IDX 10 1 11 2 12 3 13 4 14 5 15 6 16 7 20 8 17 9 19 10 18 11
REMARK SMILES IDX 9 12 8 13 21 14 7 15 5 16 6 17 3 18 4 19 2 20 1 21
REMARK H PARENT
REMARK INDEX MAP 4 1 3 2 2 3 1 4 15 5 16 6 17 7 21 8 18 9 20 10 19 11 5 12
REMARK INDEX MAP 6 13 10 14 7 15 9 16 8 17 11 18 12 19 13 20 14 21
ROOT
ATOM      1  C   UNL     1     135.605 123.527 121.241  1.00  0.00    +0.051 C 
ENDROOT
BRANCH   1   2
ATOM      2  C   UNL     1     134.763 124.239 122.319  1.00  0.00    +0.089 C 
BRANCH   2   3
ATOM      3  N   UNL     1     135.554 125.015 123.297  1.00  0.00    -0.302 NA
ATOM      4  C   UNL     1     136.377 126.031 122.633  1.00  0.00    +0.105 C 
BRANCH   3   5
ATOM      5  C   UNL     1     136.393 124.107 124.103  1.00  0.00    +0.119 C 
BRANCH   5   6
ATOM      6  C   UNL     1     135.589 123.132 124.939  1.00  0.00    -0.034 A 
ATOM      7  C   UNL     1     135.714 121.749 124.745  1.00  0.00    +0.005 A 
ATOM      8  C   UNL     1     134.688 123.603 125.907  1.00  0.00    +0.005 A 
ATOM      9  C   UNL     1     134.958 120.856 125.508  1.00  0.00    +0.000 A 
ATOM     10  C   UNL     1     133.933 122.709 126.668  1.00  0.00    +0.000 A 
ATOM     11  C   UNL     1     134.069 121.337 126.469  1.00  0.00    +0.000 A 
ENDBRANCH   5   6
ENDBRANCH   3   5
ENDBRANCH   2   3
ENDBRANCH   1   2
BRANCH   1  12
ATOM     12  C   UNL     1     135.102 123.758 119.834  1.00  0.00    -0.046 A 
ATOM     13  C   UNL     1     134.350 124.899 119.524  1.00  0.00    +0.004 A 
ATOM     14  C   UNL     1     135.361 122.822 118.823  1.00  0.00    +0.019 A 
ATOM     15  C   UNL     1     133.873 125.106 118.229  1.00  0.00    +0.001 A 
ATOM     16  C   UNL     1     134.885 123.023 117.518  1.00  0.00    +0.060 A 
ATOM     17  C   UNL     1     134.140 124.171 117.226  1.00  0.00    +0.016 A 
BRANCH  16  18
ATOM     18  C   UNL     1     135.197 121.990 116.491  1.00  0.00    +0.337 C 
ATOM     19  O   UNL     1     135.465 122.254 115.329  1.00  0.00    -0.246 OA
BRANCH  18  20
ATOM     20  O   UNL     1     135.138 120.746 117.028  1.00  0.00    -0.465 OA
ATOM     21  C   UNL     1     135.564 119.711 116.141  1.00  0.00    +0.282 C 
ENDBRANCH  18  20
ENDBRANCH  16  18
ENDBRANCH   1  12
TORSDOF 7
ENDMDL
MODEL 17
REMARK VINA RESULT:    -6.183      1.686      3.532
REMARK INTER + INTRA:         -11.247
REMARK INTER:                 -10.215
REMARK INTRA:                  -1.032
REMARK UNBOUND:                -2.534
REMARK SMILES COC(=O)c1cccc(CCN(C)Cc2ccccc2)c1
REMARK SMILES IDX 10 1 11 2 12 3 13 4 14 5 15 6 16 7 20 8 17 9 19 10 18 11
REMARK SMILES IDX 9 12 8 13 21 14 7 15 5 16 6 17 3 18 4 19 2 20 1 21
REMARK H PARENT
REMARK INDEX MAP 4 1 3 2 2 3 1 4 15 5 16 6 17 7 21 8 18 9 20 10 19 11 5 12
REMARK INDEX MAP 6 13 10 14 7 15 9 16 8 17 11 18 12 19 13 20 14 21
ROOT
ATOM      1  C   UNL     1     135.548 125.574 124.122  1.00  0.00    +0.051 C 
ENDROOT
BRANCH   1   2
ATOM      2  C   UNL     1     134.372 125.950 125.045  1.00  0.00    +0.089 C 
BRANCH   2   3
ATOM      3  N   UNL     1     133.188 125.077 124.912  1.00  0.00    -0.302 NA
ATOM      4  C   UNL     1     131.961 125.863 124.741  1.00  0.00    +0.105 C 
BRANCH   3   5
ATOM      5  C   UNL     1     133.080 124.187 126.084  1.00  0.00    +0.119 C 
BRANCH   5   6
ATOM      6  C   UNL     1     134.127 123.092 126.105  1.00  0.00    -0.034 A 
ATOM      7  C   UNL     1     134.326 122.270 124.987  1.00  0.00    +0.005 A 
ATOM      8  C   UNL     1     134.898 122.871 127.256  1.00  0.00    +0.005 A 
ATOM      9  C   UNL     1     135.282 121.252 125.019  1.00  0.00    +0.000 A 
ATOM     10  C   UNL     1     135.853 121.853 127.287  1.00  0.00    +0.000 A 
ATOM     11  C   UNL     1     136.045 121.045 126.168  1.00  0.00    +0.000 A 
ENDBRANCH   5   6
ENDBRANCH   3   5
ENDBRANCH   2   3
ENDBRANCH   1   2
BRANCH   1  12
ATOM     12  C   UNL     1     135.182 125.560 122.655  1.00  0.00    -0.046 A 
ATOM     13  C   UNL     1     134.565 126.671 122.064  1.00  0.00    +0.004 A 
ATOM     14  C   UNL     1     135.434 124.427 121.869  1.00  0.00    +0.019 A 
ATOM     15  C   UNL     1     134.214 126.654 120.713  1.00  0.00    +0.001 A 
ATOM     16  C   UNL     1     135.084 124.403 120.510  1.00  0.00    +0.060 A 
ATOM     17  C   UNL     1     134.473 125.524 119.936  1.00  0.00    +0.016 A 
BRANCH  16  18
ATOM     18  C   UNL     1     135.380 123.168 119.732  1.00  0.00    +0.337 C 
ATOM     19  O   UNL     1     135.432 122.053 120.229  1.00  0.00    -0.246 OA
BRANCH  18  20
ATOM     20  O   UNL     1     135.579 123.462 118.422  1.00  0.00    -0.465 OA
ATOM     21  C   UNL     1     134.821 122.650 117.525  1.00  0.00    +0.282 C 
ENDBRANCH  18  20
ENDBRANCH  16  18
ENDBRANCH   1  12
TORSDOF 7
ENDMDL
MODEL 18
REMARK VINA RESULT:    -6.017      3.048      4.162
REMARK INTER + INTRA:         -11.013
REMARK INTER:                 -10.466
REMARK INTRA:                  -0.546
REMARK UNBOUND:                -2.534
REMARK SMILES COC(=O)c1cccc(CCN(C)Cc2ccccc2)c1
REMARK SMILES IDX 10 1 11 2 12 3 13 4 14 5 15 6 16 7 20 8 17 9 19 10 18 11
REMARK SMILES IDX 9 12 8 13 21 14 7 15 5 16 6 17 3 18 4 19 2 20 1 21
REMARK H PARENT
REMARK INDEX MAP 4 1 3 2 2 3 1 4 15 5 16 6 17 7 21 8 18 9 20 10 19 11 5 12
REMARK INDEX MAP 6 13 10 14 7 15 9 16 8 17 11 18 12 19 13 20 14 21
ROOT
ATOM      1  C   UNL     1     132.902 123.689 124.606  1.00  0.00    +0.051 C 
ENDROOT
BRANCH   1   2
ATOM      2  C   UNL     1     132.767 125.093 125.228  1.00  0.00    +0.089 C 
BRANCH   2   3
ATOM      3  N   UNL     1     131.378 125.589 125.318  1.00  0.00    -0.302 NA
ATOM      4  C   UNL     1     131.079 126.537 124.239  1.00  0.00    +0.105 C 
BRANCH   3   5
ATOM      5  C   UNL     1     131.146 126.208 126.637  1.00  0.00    +0.119 C 
BRANCH   5   6
ATOM      6  C   UNL     1     129.997 125.579 127.400  1.00  0.00    -0.034 A 
ATOM      7  C   UNL     1     129.657 124.235 127.202  1.00  0.00    +0.005 A 
ATOM      8  C   UNL     1     129.242 126.346 128.301  1.00  0.00    +0.005 A 
ATOM      9  C   UNL     1     128.587 123.666 127.897  1.00  0.00    +0.000 A 
ATOM     10  C   UNL     1     128.173 125.776 128.995  1.00  0.00    +0.000 A 
ATOM     11  C   UNL     1     127.846 124.437 128.793  1.00  0.00    +0.000 A 
ENDBRANCH   5   6
ENDBRANCH   3   5
ENDBRANCH   2   3
ENDBRANCH   1   2
BRANCH   1  12
ATOM     12  C   UNL     1     134.005 123.589 123.577  1.00  0.00    -0.046 A 
ATOM     13  C   UNL     1     135.181 122.880 123.858  1.00  0.00    +0.004 A 
ATOM     14  C   UNL     1     133.877 124.223 122.333  1.00  0.00    +0.019 A 
ATOM     15  C   UNL     1     136.205 122.799 122.914  1.00  0.00    +0.001 A 
ATOM     16  C   UNL     1     134.903 124.146 121.378  1.00  0.00    +0.060 A 
ATOM     17  C   UNL     1     136.068 123.429 121.676  1.00  0.00    +0.016 A 
BRANCH  16  18
ATOM     18  C   UNL     1     134.704 124.841 120.077  1.00  0.00    +0.337 C 
ATOM     19  O   UNL     1     134.297 125.989 119.980  1.00  0.00    -0.246 OA
BRANCH  18  20
ATOM     20  O   UNL     1     135.033 124.028 119.042  1.00  0.00    -0.465 OA
ATOM     21  C   UNL     1     134.259 124.249 117.863  1.00  0.00    +0.282 C 
ENDBRANCH  18  20
ENDBRANCH  16  18
ENDBRANCH   1  12
TORSDOF 7
ENDMDL
MODEL 19
REMARK VINA RESULT:    -5.943      3.156      4.802
REMARK INTER + INTRA:         -10.909
REMARK INTER:                 -10.352
REMARK INTRA:                  -0.556
REMARK UNBOUND:                -2.534
REMARK SMILES COC(=O)c1cccc(CCN(C)Cc2ccccc2)c1
REMARK SMILES IDX 10 1 11 2 12 3 13 4 14 5 15 6 16 7 20 8 17 9 19 10 18 11
REMARK SMILES IDX 9 12 8 13 21 14 7 15 5 16 6 17 3 18 4 19 2 20 1 21
REMARK H PARENT
REMARK INDEX MAP 4 1 3 2 2 3 1 4 15 5 16 6 17 7 21 8 18 9 20 10 19 11 5 12
REMARK INDEX MAP 6 13 10 14 7 15 9 16 8 17 11 18 12 19 13 20 14 21
ROOT
ATOM      1  C   UNL     1     131.368 123.789 126.051  1.00  0.00    +0.051 C 
ENDROOT
BRANCH   1   2
ATOM      2  C   UNL     1     131.679 125.252 126.425  1.00  0.00    +0.089 C 
BRANCH   2   3
ATOM      3  N   UNL     1     130.491 126.125 126.514  1.00  0.00    -0.302 NA
ATOM      4  C   UNL     1     129.793 125.948 127.792  1.00  0.00    +0.105 C 
BRANCH   3   5
ATOM      5  C   UNL     1     129.583 125.862 125.381  1.00  0.00    +0.119 C 
BRANCH   5   6
ATOM      6  C   UNL     1     129.295 127.093 124.545  1.00  0.00    -0.034 A 
ATOM      7  C   UNL     1     128.199 127.124 123.671  1.00  0.00    +0.005 A 
ATOM      8  C   UNL     1     130.138 128.212 124.617  1.00  0.00    +0.005 A 
ATOM      9  C   UNL     1     127.949 128.256 122.891  1.00  0.00    +0.000 A 
ATOM     10  C   UNL     1     129.887 129.342 123.837  1.00  0.00    +0.000 A 
ATOM     11  C   UNL     1     128.792 129.363 122.975  1.00  0.00    +0.000 A 
ENDBRANCH   5   6
ENDBRANCH   3   5
ENDBRANCH   2   3
ENDBRANCH   1   2
BRANCH   1  12
ATOM     12  C   UNL     1     132.594 122.990 125.674  1.00  0.00    -0.046 A 
ATOM     13  C   UNL     1     132.855 121.755 126.283  1.00  0.00    +0.004 A 
ATOM     14  C   UNL     1     133.501 123.482 124.725  1.00  0.00    +0.019 A 
ATOM     15  C   UNL     1     133.994 121.022 125.946  1.00  0.00    +0.001 A 
ATOM     16  C   UNL     1     134.649 122.750 124.381  1.00  0.00    +0.060 A 
ATOM     17  C   UNL     1     134.889 121.516 124.996  1.00  0.00    +0.016 A 
BRANCH  16  18
ATOM     18  C   UNL     1     135.571 123.330 123.365  1.00  0.00    +0.337 C 
ATOM     19  O   UNL     1     136.199 124.363 123.536  1.00  0.00    -0.246 OA
BRANCH  18  20
ATOM     20  O   UNL     1     135.605 122.556 122.251  1.00  0.00    -0.465 OA
ATOM     21  C   UNL     1     135.651 123.299 121.032  1.00  0.00    +0.282 C 
ENDBRANCH  18  20
ENDBRANCH  16  18
ENDBRANCH   1  12
TORSDOF 7
ENDMDL
MODEL 20
REMARK VINA RESULT:    -5.921      1.817      2.922
REMARK INTER + INTRA:         -10.878
REMARK INTER:                 -10.124
REMARK INTRA:                  -0.754
REMARK UNBOUND:                -2.534
REMARK SMILES COC(=O)c1cccc(CCN(C)Cc2ccccc2)c1
REMARK SMILES IDX 10 1 11 2 12 3 13 4 14 5 15 6 16 7 20 8 17 9 19 10 18 11
REMARK SMILES IDX 9 12 8 13 21 14 7 15 5 16 6 17 3 18 4 19 2 20 1 21
REMARK H PARENT
REMARK INDEX MAP 4 1 3 2 2 3 1 4 15 5 16 6 17 7 21 8 18 9 20 10 19 11 5 12
REMARK INDEX MAP 6 13 10 14 7 15 9 16 8 17 11 18 12 19 13 20 14 21
ROOT
ATOM      1  C   UNL     1     136.103 122.282 124.119  1.00  0.00    +0.051 C 
ENDROOT
BRANCH   1   2
ATOM      2  C   UNL     1     134.903 121.625 124.828  1.00  0.00    +0.089 C 
BRANCH   2   3
ATOM      3  N   UNL     1     134.462 122.322 126.054  1.00  0.00    -0.302 NA
ATOM      4  C   UNL     1     135.243 121.896 127.220  1.00  0.00    +0.105 C 
BRANCH   3   5
ATOM      5  C   UNL     1     133.022 122.093 126.277  1.00  0.00    +0.119 C 
BRANCH   5   6
ATOM      6  C   UNL     1     132.223 123.375 126.404  1.00  0.00    -0.034 A 
ATOM      7  C   UNL     1     132.809 124.615 126.115  1.00  0.00    +0.005 A 
ATOM      8  C   UNL     1     130.888 123.338 126.837  1.00  0.00    +0.005 A 
ATOM      9  C   UNL     1     132.071 125.794 126.250  1.00  0.00    +0.000 A 
ATOM     10  C   UNL     1     130.153 124.517 126.971  1.00  0.00    +0.000 A 
ATOM     11  C   UNL     1     130.745 125.744 126.677  1.00  0.00    +0.000 A 
ENDBRANCH   5   6
ENDBRANCH   3   5
ENDBRANCH   2   3
ENDBRANCH   1   2
BRANCH   1  12
ATOM     12  C   UNL     1     135.720 123.062 122.882  1.00  0.00    -0.046 A 
ATOM     13  C   UNL     1     136.034 122.575 121.606  1.00  0.00    +0.004 A 
ATOM     14  C   UNL     1     135.062 124.295 122.993  1.00  0.00    +0.019 A 
ATOM     15  C   UNL     1     135.693 123.300 120.464  1.00  0.00    +0.001 A 
ATOM     16  C   UNL     1     134.715 125.030 121.849  1.00  0.00    +0.060 A 
ATOM     17  C   UNL     1     135.034 124.525 120.583  1.00  0.00    +0.016 A 
BRANCH  16  18
ATOM     18  C   UNL     1     134.018 126.333 122.037  1.00  0.00    +0.337 C 
ATOM     19  O   UNL     1     134.373 127.372 121.502  1.00  0.00    -0.246 OA
BRANCH  18  20
ATOM     20  O   UNL     1     132.957 126.193 122.871  1.00  0.00    -0.465 OA
ATOM     21  C   UNL     1     131.992 125.240 122.427  1.00  0.00    +0.282 C 
ENDBRANCH  18  20
ENDBRANCH  16  18
ENDBRANCH   1  12
TORSDOF 7
ENDMDL
