MODEL 1
REMARK VINA RESULT:    -7.298      0.000      0.000
REMARK INTER + INTRA:         -12.876
REMARK INTER:                 -10.284
REMARK INTRA:                  -2.592
REMARK UNBOUND:                -2.592
REMARK SMILES COC(=O)c1cccc(CCN(C)Cc2ccccc2)c1
REMARK SMILES IDX 10 1 11 2 12 3 13 4 14 5 15 6 16 7 20 8 17 9 19 10 18 11
REMARK SMILES IDX 9 12 8 13 21 14 7 15 5 16 6 17 3 18 4 19 2 20 1 21
REMARK H PARENT
REMARK INDEX MAP 4 1 3 2 2 3 1 4 15 5 16 6 17 7 21 8 18 9 20 10 19 11 5 12
REMARK INDEX MAP 6 13 10 14 7 15 9 16 8 17 11 18 12 19 13 20 14 21
ROOT
ATOM      1  C   UNL     1     136.306 122.228 124.423  1.00  0.00    +0.051 C 
ENDROOT
BRANCH   1   2
ATOM      2  C   UNL     1     134.954 121.574 124.773  1.00  0.00    +0.089 C 
BRANCH   2   3
ATOM      3  N   UNL     1     134.220 122.238 125.870  1.00  0.00    -0.302 NA
ATOM      4  C   UNL     1     134.296 121.461 127.111  1.00  0.00    +0.105 C 
BRANCH   3   5
ATOM      5  C   UNL     1     132.816 122.462 125.478  1.00  0.00    +0.119 C 
BRANCH   5   6
ATOM      6  C   UNL     1     132.615 123.719 124.656  1.00  0.00    -0.034 A 
ATOM      7  C   UNL     1     132.177 123.643 123.327  1.00  0.00    +0.005 A 
ATOM      8  C   UNL     1     132.889 124.979 125.210  1.00  0.00    +0.005 A 
ATOM      9  C   UNL     1     132.010 124.806 122.570  1.00  0.00    +0.000 A 
ATOM     10  C   UNL     1     132.721 126.139 124.452  1.00  0.00    +0.000 A 
ATOM     11  C   UNL     1     132.281 126.052 123.134  1.00  0.00    +0.000 A 
ENDBRANCH   5   6
ENDBRANCH   3   5
ENDBRANCH   2   3
ENDBRANCH   1   2
BRANCH   1  12
ATOM     12  C   UNL     1     136.168 123.533 123.673  1.00  0.00    -0.046 A 
ATOM     13  C   UNL     1     136.487 124.748 124.292  1.00  0.00    +0.004 A 
ATOM     14  C   UNL     1     135.698 123.548 122.352  1.00  0.00    +0.019 A 
ATOM     15  C   UNL     1     136.348 125.955 123.605  1.00  0.00    +0.001 A 
ATOM     16  C   UNL     1     135.555 124.758 121.654  1.00  0.00    +0.060 A 
ATOM     17  C   UNL     1     135.883 125.962 122.288  1.00  0.00    +0.016 A 
BRANCH  16  18
ATOM     18  C   UNL     1     135.050 124.704 120.254  1.00  0.00    +0.337 C 
ATOM     19  O   UNL     1     134.380 125.588 119.744  1.00  0.00    -0.246 OA
BRANCH  18  20
ATOM     20  O   UNL     1     135.437 123.554 119.648  1.00  0.00    -0.465 OA
ATOM     21  C   UNL     1     135.128 123.501 118.255  1.00  0.00    +0.282 C 
ENDBRANCH  18  20
ENDBRANCH  16  18
ENDBRANCH   1  12
TORSDOF 7
ENDMDL
MODEL 2
REMARK VINA RESULT:    -7.224      3.146      6.034
REMARK INTER + INTRA:         -12.772
REMARK INTER:                 -10.537
REMARK INTRA:                  -2.235
REMARK UNBOUND:                -2.592
REMARK SMILES COC(=O)c1cccc(CCN(C)Cc2ccccc2)c1
REMARK SMILES IDX 10 1 11 2 12 3 13 4 14 5 15 6 16 7 20 8 17 9 19 10 18 11
REMARK SMILES IDX 9 12 8 13 21 14 7 15 5 16 6 17 3 18 4 19 2 20 1 21
REMARK H PARENT
REMARK INDEX MAP 4 1 3 2 2 3 1 4 15 5 16 6 17 7 21 8 18 9 20 10 19 11 5 12
REMARK INDEX MAP 6 13 10 14 7 15 9 16 8 17 11 18 12 19 13 20 14 21
ROOT
ATOM      1  C   UNL     1     132.726 124.831 122.286  1.00  0.00    +0.051 C 
ENDROOT
BRANCH   1   2
ATOM      2  C   UNL     1     134.186 124.397 122.047  1.00  0.00    +0.089 C 
BRANCH   2   3
ATOM      3  N   UNL     1     135.163 125.007 122.973  1.00  0.00    -0.302 NA
ATOM      4  C   UNL     1     135.853 126.142 122.350  1.00  0.00    +0.105 C 
BRANCH   3   5
ATOM      5  C   UNL     1     136.132 123.991 123.427  1.00  0.00    +0.119 C 
BRANCH   5   6
ATOM      6  C   UNL     1     135.653 123.200 124.627  1.00  0.00    -0.034 A 
ATOM      7  C   UNL     1     135.428 121.820 124.532  1.00  0.00    +0.005 A 
ATOM      8  C   UNL     1     135.404 123.846 125.849  1.00  0.00    +0.005 A 
ATOM      9  C   UNL     1     134.971 121.100 125.638  1.00  0.00    +0.000 A 
ATOM     10  C   UNL     1     134.947 123.124 126.953  1.00  0.00    +0.000 A 
ATOM     11  C   UNL     1     134.731 121.752 126.847  1.00  0.00    +0.000 A 
ENDBRANCH   5   6
ENDBRANCH   3   5
ENDBRANCH   2   3
ENDBRANCH   1   2
BRANCH   1  12
ATOM     12  C   UNL     1     132.260 124.621 123.709  1.00  0.00    -0.046 A 
ATOM     13  C   UNL     1     132.014 123.329 124.194  1.00  0.00    +0.004 A 
ATOM     14  C   UNL     1     132.047 125.716 124.558  1.00  0.00    +0.019 A 
ATOM     15  C   UNL     1     131.570 123.134 125.503  1.00  0.00    +0.001 A 
ATOM     16  C   UNL     1     131.602 125.528 125.875  1.00  0.00    +0.060 A 
ATOM     17  C   UNL     1     131.366 124.230 126.344  1.00  0.00    +0.016 A 
BRANCH  16  18
ATOM     18  C   UNL     1     131.396 126.734 126.724  1.00  0.00    +0.337 C 
ATOM     19  O   UNL     1     132.023 127.773 126.584  1.00  0.00    -0.246 OA
BRANCH  18  20
ATOM     20  O   UNL     1     130.432 126.509 127.652  1.00  0.00    -0.465 OA
ATOM     21  C   UNL     1     129.323 127.403 127.563  1.00  0.00    +0.282 C 
ENDBRANCH  18  20
ENDBRANCH  16  18
ENDBRANCH   1  12
TORSDOF 7
ENDMDL
MODEL 3
REMARK VINA RESULT:    -7.122      1.545      3.487
REMARK INTER + INTRA:         -12.628
REMARK INTER:                 -10.350
REMARK INTRA:                  -2.278
REMARK UNBOUND:                -2.592
REMARK SMILES COC(=O)c1cccc(CCN(C)Cc2ccccc2)c1
REMARK SMILES IDX 10 1 11 2 12 3 13 4 14 5 15 6 16 7 20 8 17 9 19 10 18 11
REMARK SMILES IDX 9 12 8 13 21 14 7 15 5 16 6 17 3 18 4 19 2 20 1 21
REMARK H PARENT
REMARK INDEX MAP 4 1 3 2 2 3 1 4 15 5 16 6 17 7 21 8 18 9 20 10 19 11 5 12
REMARK INDEX MAP 6 13 10 14 7 15 9 16 8 17 11 18 12 19 13 20 14 21
ROOT
ATOM      1  C   UNL     1     132.332 125.997 123.039  1.00  0.00    +0.051 C 
ENDROOT
BRANCH   1   2
ATOM      2  C   UNL     1     132.420 125.967 124.578  1.00  0.00    +0.089 C 
BRANCH   2   3
ATOM      3  N   UNL     1     131.880 124.739 125.197  1.00  0.00    -0.302 NA
ATOM      4  C   UNL     1     130.633 125.009 125.919  1.00  0.00    +0.105 C 
BRANCH   3   5
ATOM      5  C   UNL     1     132.885 124.139 126.095  1.00  0.00    +0.119 C 
BRANCH   5   6
ATOM      6  C   UNL     1     134.132 123.671 125.372  1.00  0.00    -0.034 A 
ATOM      7  C   UNL     1     135.399 124.127 125.760  1.00  0.00    +0.005 A 
ATOM      8  C   UNL     1     134.031 122.789 124.285  1.00  0.00    +0.005 A 
ATOM      9  C   UNL     1     136.542 123.704 125.079  1.00  0.00    +0.000 A 
ATOM     10  C   UNL     1     135.175 122.367 123.605  1.00  0.00    +0.000 A 
ATOM     11  C   UNL     1     136.429 122.824 124.003  1.00  0.00    +0.000 A 
ENDBRANCH   5   6
ENDBRANCH   3   5
ENDBRANCH   2   3
ENDBRANCH   1   2
BRANCH   1  12
ATOM     12  C   UNL     1     133.664 125.784 122.356  1.00  0.00    -0.046 A 
ATOM     13  C   UNL     1     134.839 126.318 122.901  1.00  0.00    +0.004 A 
ATOM     14  C   UNL     1     133.740 125.067 121.153  1.00  0.00    +0.019 A 
ATOM     15  C   UNL     1     136.067 126.135 122.264  1.00  0.00    +0.001 A 
ATOM     16  C   UNL     1     134.971 124.878 120.506  1.00  0.00    +0.060 A 
ATOM     17  C   UNL     1     136.135 125.415 121.069  1.00  0.00    +0.016 A 
BRANCH  16  18
ATOM     18  C   UNL     1     134.983 124.106 119.233  1.00  0.00    +0.337 C 
ATOM     19  O   UNL     1     135.427 122.972 119.135  1.00  0.00    -0.246 OA
BRANCH  18  20
ATOM     20  O   UNL     1     134.440 124.834 118.225  1.00  0.00    -0.465 OA
ATOM     21  C   UNL     1     133.537 124.098 117.400  1.00  0.00    +0.282 C 
ENDBRANCH  18  20
ENDBRANCH  16  18
ENDBRANCH   1  12
TORSDOF 7
ENDMDL
MODEL 4
REMARK VINA RESULT:    -6.868      1.693      3.013
REMARK INTER + INTRA:         -12.270
REMARK INTER:                 -10.002
REMARK INTRA:                  -2.268
REMARK UNBOUND:                -2.592
REMARK SMILES COC(=O)c1cccc(CCN(C)Cc2ccccc2)c1
REMARK SMILES IDX 10 1 11 2 12 3 13 4 14 5 15 6 16 7 20 8 17 9 19 10 18 11
REMARK SMILES IDX 9 12 8 13 21 14 7 15 5 16 6 17 3 18 4 19 2 20 1 21
REMARK H PARENT
REMARK INDEX MAP 4 1 3 2 2 3 1 4 15 5 16 6 17 7 21 8 18 9 20 10 19 11 5 12
REMARK INDEX MAP 6 13 10 14 7 15 9 16 8 17 11 18 12 19 13 20 14 21
ROOT
ATOM      1  C   UNL     1     136.103 121.840 124.505  1.00  0.00    +0.051 C 
ENDROOT
BRANCH   1   2
ATOM      2  C   UNL     1     134.869 121.464 125.350  1.00  0.00    +0.089 C 
BRANCH   2   3
ATOM      3  N   UNL     1     134.542 122.432 126.417  1.00  0.00    -0.302 NA
ATOM      4  C   UNL     1     134.936 121.926 127.736  1.00  0.00    +0.105 C 
BRANCH   3   5
ATOM      5  C   UNL     1     133.103 122.752 126.388  1.00  0.00    +0.119 C 
BRANCH   5   6
ATOM      6  C   UNL     1     132.739 123.788 125.343  1.00  0.00    -0.034 A 
ATOM      7  C   UNL     1     132.789 125.156 125.644  1.00  0.00    +0.005 A 
ATOM      8  C   UNL     1     132.322 123.389 124.064  1.00  0.00    +0.005 A 
ATOM      9  C   UNL     1     132.436 126.105 124.681  1.00  0.00    +0.000 A 
ATOM     10  C   UNL     1     131.970 124.338 123.103  1.00  0.00    +0.000 A 
ATOM     11  C   UNL     1     132.028 125.695 123.412  1.00  0.00    +0.000 A 
ENDBRANCH   5   6
ENDBRANCH   3   5
ENDBRANCH   2   3
ENDBRANCH   1   2
BRANCH   1  12
ATOM     12  C   UNL     1     135.828 122.920 123.484  1.00  0.00    -0.046 A 
ATOM     13  C   UNL     1     135.447 122.587 122.178  1.00  0.00    +0.004 A 
ATOM     14  C   UNL     1     135.971 124.273 123.824  1.00  0.00    +0.019 A 
ATOM     15  C   UNL     1     135.206 123.583 121.230  1.00  0.00    +0.001 A 
ATOM     16  C   UNL     1     135.730 125.281 122.877  1.00  0.00    +0.060 A 
ATOM     17  C   UNL     1     135.346 124.928 121.578  1.00  0.00    +0.016 A 
BRANCH  16  18
ATOM     18  C   UNL     1     135.900 126.698 123.302  1.00  0.00    +0.337 C 
ATOM     19  O   UNL     1     136.143 127.611 122.528  1.00  0.00    -0.246 OA
BRANCH  18  20
ATOM     20  O   UNL     1     135.749 126.817 124.645  1.00  0.00    -0.465 OA
ATOM     21  C   UNL     1     136.830 127.490 125.292  1.00  0.00    +0.282 C 
ENDBRANCH  18  20
ENDBRANCH  16  18
ENDBRANCH   1  12
TORSDOF 7
ENDMDL
MODEL 5
REMARK VINA RESULT:    -6.859      1.904      4.164
REMARK INTER + INTRA:         -12.257
REMARK INTER:                 -11.648
REMARK INTRA:                  -0.609
REMARK UNBOUND:                -2.592
REMARK SMILES COC(=O)c1cccc(CCN(C)Cc2ccccc2)c1
REMARK SMILES IDX 10 1 11 2 12 3 13 4 14 5 15 6 16 7 20 8 17 9 19 10 18 11
REMARK SMILES IDX 9 12 8 13 21 14 7 15 5 16 6 17 3 18 4 19 2 20 1 21
REMARK H PARENT
REMARK INDEX MAP 4 1 3 2 2 3 1 4 15 5 16 6 17 7 21 8 18 9 20 10 19 11 5 12
REMARK INDEX MAP 6 13 10 14 7 15 9 16 8 17 11 18 12 19 13 20 14 21
ROOT
ATOM      1  C   UNL     1     134.258 126.433 121.378  1.00  0.00    +0.051 C 
ENDROOT
BRANCH   1   2
ATOM      2  C   UNL     1     134.691 126.449 122.858  1.00  0.00    +0.089 C 
BRANCH   2   3
ATOM      3  N   UNL     1     133.970 125.484 123.714  1.00  0.00    -0.302 NA
ATOM      4  C   UNL     1     132.608 125.943 124.006  1.00  0.00    +0.105 C 
BRANCH   3   5
ATOM      5  C   UNL     1     134.723 125.254 124.962  1.00  0.00    +0.119 C 
BRANCH   5   6
ATOM      6  C   UNL     1     134.880 123.787 125.306  1.00  0.00    -0.034 A 
ATOM      7  C   UNL     1     135.580 122.922 124.454  1.00  0.00    +0.005 A 
ATOM      8  C   UNL     1     134.302 123.268 126.476  1.00  0.00    +0.005 A 
ATOM      9  C   UNL     1     135.706 121.567 124.770  1.00  0.00    +0.000 A 
ATOM     10  C   UNL     1     134.429 121.914 126.790  1.00  0.00    +0.000 A 
ATOM     11  C   UNL     1     135.132 121.065 125.937  1.00  0.00    +0.000 A 
ENDBRANCH   5   6
ENDBRANCH   3   5
ENDBRANCH   2   3
ENDBRANCH   1   2
BRANCH   1  12
ATOM     12  C   UNL     1     134.751 125.223 120.619  1.00  0.00    -0.046 A 
ATOM     13  C   UNL     1     135.789 124.433 121.131  1.00  0.00    +0.004 A 
ATOM     14  C   UNL     1     134.191 124.883 119.379  1.00  0.00    +0.019 A 
ATOM     15  C   UNL     1     136.254 123.323 120.425  1.00  0.00    +0.001 A 
ATOM     16  C   UNL     1     134.653 123.768 118.663  1.00  0.00    +0.060 A 
ATOM     17  C   UNL     1     135.688 122.989 119.194  1.00  0.00    +0.016 A 
BRANCH  16  18
ATOM     18  C   UNL     1     134.015 123.463 117.352  1.00  0.00    +0.337 C 
ATOM     19  O   UNL     1     133.295 124.247 116.753  1.00  0.00    -0.246 OA
BRANCH  18  20
ATOM     20  O   UNL     1     134.346 122.214 116.936  1.00  0.00    -0.465 OA
ATOM     21  C   UNL     1     135.340 122.190 115.911  1.00  0.00    +0.282 C 
ENDBRANCH  18  20
ENDBRANCH  16  18
ENDBRANCH   1  12
TORSDOF 7
ENDMDL
MODEL 6
REMARK VINA RESULT:    -6.811      3.181      5.663
REMARK INTER + INTRA:         -12.190
REMARK INTER:                 -11.273
REMARK INTRA:                  -0.917
REMARK UNBOUND:                -2.592
REMARK SMILES COC(=O)c1cccc(CCN(C)Cc2ccccc2)c1
REMARK SMILES IDX 10 1 11 2 12 3 13 4 14 5 15 6 16 7 20 8 17 9 19 10 18 11
REMARK SMILES IDX 9 12 8 13 21 14 7 15 5 16 6 17 3 18 4 19 2 20 1 21
REMARK H PARENT
REMARK INDEX MAP 4 1 3 2 2 3 1 4 15 5 16 6 17 7 21 8 18 9 20 10 19 11 5 12
REMARK INDEX MAP 6 13 10 14 7 15 9 16 8 17 11 18 12 19 13 20 14 21
ROOT
ATOM      1  C   UNL     1     135.783 124.226 126.312  1.00  0.00    +0.051 C 
ENDROOT
BRANCH   1   2
ATOM      2  C   UNL     1     136.442 124.260 124.919  1.00  0.00    +0.089 C 
BRANCH   2   3
ATOM      3  N   UNL     1     136.900 125.599 124.493  1.00  0.00    -0.302 NA
ATOM      4  C   UNL     1     137.691 126.251 125.541  1.00  0.00    +0.105 C 
BRANCH   3   5
ATOM      5  C   UNL     1     135.743 126.433 124.115  1.00  0.00    +0.119 C 
BRANCH   5   6
ATOM      6  C   UNL     1     135.091 126.002 122.817  1.00  0.00    -0.034 A 
ATOM      7  C   UNL     1     135.848 125.862 121.647  1.00  0.00    +0.005 A 
ATOM      8  C   UNL     1     133.709 125.761 122.765  1.00  0.00    +0.005 A 
ATOM      9  C   UNL     1     135.238 125.481 120.450  1.00  0.00    +0.000 A 
ATOM     10  C   UNL     1     133.100 125.380 121.568  1.00  0.00    +0.000 A 
ATOM     11  C   UNL     1     133.865 125.239 120.412  1.00  0.00    +0.000 A 
ENDBRANCH   5   6
ENDBRANCH   3   5
ENDBRANCH   2   3
ENDBRANCH   1   2
BRANCH   1  12
ATOM     12  C   UNL     1     134.558 123.343 126.377  1.00  0.00    -0.046 A 
ATOM     13  C   UNL     1     134.686 121.950 126.456  1.00  0.00    +0.004 A 
ATOM     14  C   UNL     1     133.273 123.903 126.339  1.00  0.00    +0.019 A 
ATOM     15  C   UNL     1     133.556 121.132 126.502  1.00  0.00    +0.001 A 
ATOM     16  C   UNL     1     132.132 123.088 126.385  1.00  0.00    +0.060 A 
ATOM     17  C   UNL     1     132.281 121.699 126.469  1.00  0.00    +0.016 A 
BRANCH  16  18
ATOM     18  C   UNL     1     130.797 123.747 126.340  1.00  0.00    +0.337 C 
ATOM     19  O   UNL     1     130.433 124.472 125.427  1.00  0.00    -0.246 OA
BRANCH  18  20
ATOM     20  O   UNL     1     130.067 123.430 127.439  1.00  0.00    -0.465 OA
ATOM     21  C   UNL     1     128.926 124.264 127.637  1.00  0.00    +0.282 C 
ENDBRANCH  18  20
ENDBRANCH  16  18
ENDBRANCH   1  12
TORSDOF 7
ENDMDL
MODEL 7
REMARK VINA RESULT:    -6.750      2.790      4.822
REMARK INTER + INTRA:         -12.104
REMARK INTER:                  -9.626
REMARK INTRA:                  -2.477
REMARK UNBOUND:                -2.592
REMARK SMILES COC(=O)c1cccc(CCN(C)Cc2ccccc2)c1
REMARK SMILES IDX 10 1 11 2 12 3 13 4 14 5 15 6 16 7 20 8 17 9 19 10 18 11
REMARK SMILES IDX 9 12 8 13 21 14 7 15 5 16 6 17 3 18 4 19 2 20 1 21
REMARK H PARENT
REMARK INDEX MAP 4 1 3 2 2 3 1 4 15 5 16 6 17 7 21 8 18 9 20 10 19 11 5 12
REMARK INDEX MAP 6 13 10 14 7 15 9 16 8 17 11 18 12 19 13 20 14 21
ROOT
ATOM      1  C   UNL     1     136.355 123.400 121.312  1.00  0.00    +0.051 C 
ENDROOT
BRANCH   1   2
ATOM      2  C   UNL     1     135.958 124.633 120.476  1.00  0.00    +0.089 C 
BRANCH   2   3
ATOM      3  N   UNL     1     134.535 124.669 120.080  1.00  0.00    -0.302 NA
ATOM      4  C   UNL     1     134.388 124.771 118.624  1.00  0.00    +0.105 C 
BRANCH   3   5
ATOM      5  C   UNL     1     133.850 125.789 120.754  1.00  0.00    +0.119 C 
BRANCH   5   6
ATOM      6  C   UNL     1     133.204 125.393 122.066  1.00  0.00    -0.034 A 
ATOM      7  C   UNL     1     132.596 124.139 122.216  1.00  0.00    +0.005 A 
ATOM      8  C   UNL     1     133.183 126.291 123.145  1.00  0.00    +0.005 A 
ATOM      9  C   UNL     1     131.987 123.788 123.423  1.00  0.00    +0.000 A 
ATOM     10  C   UNL     1     132.574 125.939 124.351  1.00  0.00    +0.000 A 
ATOM     11  C   UNL     1     131.978 124.687 124.489  1.00  0.00    +0.000 A 
ENDBRANCH   5   6
ENDBRANCH   3   5
ENDBRANCH   2   3
ENDBRANCH   1   2
BRANCH   1  12
ATOM     12  C   UNL     1     136.109 123.573 122.794  1.00  0.00    -0.046 A 
ATOM     13  C   UNL     1     136.444 124.772 123.437  1.00  0.00    +0.004 A 
ATOM     14  C   UNL     1     135.561 122.528 123.551  1.00  0.00    +0.019 A 
ATOM     15  C   UNL     1     136.231 124.928 124.807  1.00  0.00    +0.001 A 
ATOM     16  C   UNL     1     135.343 122.677 124.930  1.00  0.00    +0.060 A 
ATOM     17  C   UNL     1     135.680 123.884 125.553  1.00  0.00    +0.016 A 
BRANCH  16  18
ATOM     18  C   UNL     1     134.757 121.529 125.675  1.00  0.00    +0.337 C 
ATOM     19  O   UNL     1     134.936 120.361 125.364  1.00  0.00    -0.246 OA
BRANCH  18  20
ATOM     20  O   UNL     1     134.015 121.965 126.724  1.00  0.00    -0.465 OA
ATOM     21  C   UNL     1     132.609 121.784 126.553  1.00  0.00    +0.282 C 
ENDBRANCH  18  20
ENDBRANCH  16  18
ENDBRANCH   1  12
TORSDOF 7
ENDMDL
MODEL 8
REMARK VINA RESULT:    -6.716      2.401      4.548
REMARK INTER + INTRA:         -12.055
REMARK INTER:                 -10.788
REMARK INTRA:                  -1.267
REMARK UNBOUND:                -2.592
REMARK SMILES COC(=O)c1cccc(CCN(C)Cc2ccccc2)c1
REMARK SMILES IDX 10 1 11 2 12 3 13 4 14 5 15 6 16 7 20 8 17 9 19 10 18 11
REMARK SMILES IDX 9 12 8 13 21 14 7 15 5 16 6 17 3 18 4 19 2 20 1 21
REMARK H PARENT
REMARK INDEX MAP 4 1 3 2 2 3 1 4 15 5 16 6 17 7 21 8 18 9 20 10 19 11 5 12
REMARK INDEX MAP 6 13 10 14 7 15 9 16 8 17 11 18 12 19 13 20 14 21
ROOT
ATOM      1  C   UNL     1     131.716 125.200 122.904  1.00  0.00    +0.051 C 
ENDROOT
BRANCH   1   2
ATOM      2  C   UNL     1     131.440 125.976 124.207  1.00  0.00    +0.089 C 
BRANCH   2   3
ATOM      3  N   UNL     1     130.846 125.163 125.288  1.00  0.00    -0.302 NA
ATOM      4  C   UNL     1     129.568 125.724 125.738  1.00  0.00    +0.105 C 
BRANCH   3   5
ATOM      5  C   UNL     1     131.792 125.047 126.414  1.00  0.00    +0.119 C 
BRANCH   5   6
ATOM      6  C   UNL     1     132.588 123.758 126.399  1.00  0.00    -0.034 A 
ATOM      7  C   UNL     1     131.968 122.537 126.101  1.00  0.00    +0.005 A 
ATOM      8  C   UNL     1     133.957 123.767 126.710  1.00  0.00    +0.005 A 
ATOM      9  C   UNL     1     132.704 121.350 126.106  1.00  0.00    +0.000 A 
ATOM     10  C   UNL     1     134.691 122.580 126.714  1.00  0.00    +0.000 A 
ATOM     11  C   UNL     1     134.065 121.373 126.411  1.00  0.00    +0.000 A 
ENDBRANCH   5   6
ENDBRANCH   3   5
ENDBRANCH   2   3
ENDBRANCH   1   2
BRANCH   1  12
ATOM     12  C   UNL     1     133.157 125.273 122.453  1.00  0.00    -0.046 A 
ATOM     13  C   UNL     1     133.472 125.504 121.107  1.00  0.00    +0.004 A 
ATOM     14  C   UNL     1     134.201 125.089 123.371  1.00  0.00    +0.019 A 
ATOM     15  C   UNL     1     134.802 125.558 120.687  1.00  0.00    +0.001 A 
ATOM     16  C   UNL     1     135.540 125.142 122.956  1.00  0.00    +0.060 A 
ATOM     17  C   UNL     1     135.835 125.379 121.608  1.00  0.00    +0.016 A 
BRANCH  16  18
ATOM     18  C   UNL     1     136.601 124.939 123.982  1.00  0.00    +0.337 C 
ATOM     19  O   UNL     1     136.845 123.857 124.495  1.00  0.00    -0.246 OA
BRANCH  18  20
ATOM     20  O   UNL     1     137.237 126.106 124.253  1.00  0.00    -0.465 OA
ATOM     21  C   UNL     1     137.725 126.202 125.591  1.00  0.00    +0.282 C 
ENDBRANCH  18  20
ENDBRANCH  16  18
ENDBRANCH   1  12
TORSDOF 7
ENDMDL
MODEL 9
REMARK VINA RESULT:    -6.603      1.371      3.456
REMARK INTER + INTRA:         -11.897
REMARK INTER:                  -9.822
REMARK INTRA:                  -2.075
REMARK UNBOUND:                -2.592
REMARK SMILES COC(=O)c1cccc(CCN(C)Cc2ccccc2)c1
REMARK SMILES IDX 10 1 11 2 12 3 13 4 14 5 15 6 16 7 20 8 17 9 19 10 18 11
REMARK SMILES IDX 9 12 8 13 21 14 7 15 5 16 6 17 3 18 4 19 2 20 1 21
REMARK H PARENT
REMARK INDEX MAP 4 1 3 2 2 3 1 4 15 5 16 6 17 7 21 8 18 9 20 10 19 11 5 12
REMARK INDEX MAP 6 13 10 14 7 15 9 16 8 17 11 18 12 19 13 20 14 21
ROOT
ATOM      1  C   UNL     1     132.778 125.829 125.331  1.00  0.00    +0.051 C 
ENDROOT
BRANCH   1   2
ATOM      2  C   UNL     1     132.503 124.747 126.394  1.00  0.00    +0.089 C 
BRANCH   2   3
ATOM      3  N   UNL     1     131.702 123.604 125.908  1.00  0.00    -0.302 NA
ATOM      4  C   UNL     1     130.283 123.765 126.242  1.00  0.00    +0.105 C 
BRANCH   3   5
ATOM      5  C   UNL     1     132.230 122.343 126.463  1.00  0.00    +0.119 C 
BRANCH   5   6
ATOM      6  C   UNL     1     133.678 122.086 126.098  1.00  0.00    -0.034 A 
ATOM      7  C   UNL     1     134.671 122.054 127.086  1.00  0.00    +0.005 A 
ATOM      8  C   UNL     1     134.048 121.900 124.756  1.00  0.00    +0.005 A 
ATOM      9  C   UNL     1     136.007 121.834 126.739  1.00  0.00    +0.000 A 
ATOM     10  C   UNL     1     135.383 121.680 124.412  1.00  0.00    +0.000 A 
ATOM     11  C   UNL     1     136.361 121.646 125.404  1.00  0.00    +0.000 A 
ENDBRANCH   5   6
ENDBRANCH   3   5
ENDBRANCH   2   3
ENDBRANCH   1   2
BRANCH   1  12
ATOM     12  C   UNL     1     133.963 125.517 124.446  1.00  0.00    -0.046 A 
ATOM     13  C   UNL     1     135.257 125.466 124.980  1.00  0.00    +0.004 A 
ATOM     14  C   UNL     1     133.787 125.296 123.072  1.00  0.00    +0.019 A 
ATOM     15  C   UNL     1     136.354 125.192 124.162  1.00  0.00    +0.001 A 
ATOM     16  C   UNL     1     134.885 125.020 122.243  1.00  0.00    +0.060 A 
ATOM     17  C   UNL     1     136.170 124.968 122.796  1.00  0.00    +0.016 A 
BRANCH  16  18
ATOM     18  C   UNL     1     134.630 124.795 120.794  1.00  0.00    +0.337 C 
ATOM     19  O   UNL     1     133.908 125.510 120.116  1.00  0.00    -0.246 OA
BRANCH  18  20
ATOM     20  O   UNL     1     135.302 123.703 120.351  1.00  0.00    -0.465 OA
ATOM     21  C   UNL     1     135.304 123.560 118.930  1.00  0.00    +0.282 C 
ENDBRANCH  18  20
ENDBRANCH  16  18
ENDBRANCH   1  12
TORSDOF 7
ENDMDL
MODEL 10
REMARK VINA RESULT:    -6.518      2.826      6.024
REMARK INTER + INTRA:         -11.777
REMARK INTER:                 -11.776
REMARK INTRA:                  -0.001
REMARK UNBOUND:                -2.592
REMARK SMILES COC(=O)c1cccc(CCN(C)Cc2ccccc2)c1
REMARK SMILES IDX 10 1 11 2 12 3 13 4 14 5 15 6 16 7 20 8 17 9 19 10 18 11
REMARK SMILES IDX 9 12 8 13 21 14 7 15 5 16 6 17 3 18 4 19 2 20 1 21
REMARK H PARENT
REMARK INDEX MAP 4 1 3 2 2 3 1 4 15 5 16 6 17 7 21 8 18 9 20 10 19 11 5 12
REMARK INDEX MAP 6 13 10 14 7 15 9 16 8 17 11 18 12 19 13 20 14 21
ROOT
ATOM      1  C   UNL     1     135.629 123.013 123.010  1.00  0.00    +0.051 C 
ENDROOT
BRANCH   1   2
ATOM      2  C   UNL     1     134.743 123.448 121.825  1.00  0.00    +0.089 C 
BRANCH   2   3
ATOM      3  N   UNL     1     134.735 124.904 121.573  1.00  0.00    -0.302 NA
ATOM      4  C   UNL     1     133.367 125.433 121.548  1.00  0.00    +0.105 C 
BRANCH   3   5
ATOM      5  C   UNL     1     135.434 125.203 120.309  1.00  0.00    +0.119 C 
BRANCH   5   6
ATOM      6  C   UNL     1     134.988 124.329 119.154  1.00  0.00    -0.034 A 
ATOM      7  C   UNL     1     134.074 124.808 118.205  1.00  0.00    +0.005 A 
ATOM      8  C   UNL     1     135.467 123.015 119.034  1.00  0.00    +0.005 A 
ATOM      9  C   UNL     1     133.654 123.991 117.153  1.00  0.00    +0.000 A 
ATOM     10  C   UNL     1     135.046 122.200 117.982  1.00  0.00    +0.000 A 
ATOM     11  C   UNL     1     134.141 122.689 117.042  1.00  0.00    +0.000 A 
ENDBRANCH   5   6
ENDBRANCH   3   5
ENDBRANCH   2   3
ENDBRANCH   1   2
BRANCH   1  12
ATOM     12  C   UNL     1     134.841 122.512 124.199  1.00  0.00    -0.046 A 
ATOM     13  C   UNL     1     135.317 121.443 124.970  1.00  0.00    +0.004 A 
ATOM     14  C   UNL     1     133.612 123.095 124.535  1.00  0.00    +0.019 A 
ATOM     15  C   UNL     1     134.585 120.970 126.060  1.00  0.00    +0.001 A 
ATOM     16  C   UNL     1     132.869 122.625 125.630  1.00  0.00    +0.060 A 
ATOM     17  C   UNL     1     133.363 121.560 126.391  1.00  0.00    +0.016 A 
BRANCH  16  18
ATOM     18  C   UNL     1     131.571 123.289 125.933  1.00  0.00    +0.337 C 
ATOM     19  O   UNL     1     130.876 123.004 126.896  1.00  0.00    -0.246 OA
BRANCH  18  20
ATOM     20  O   UNL     1     131.285 124.233 125.002  1.00  0.00    -0.465 OA
ATOM     21  C   UNL     1     130.647 125.396 125.532  1.00  0.00    +0.282 C 
ENDBRANCH  18  20
ENDBRANCH  16  18
ENDBRANCH   1  12
TORSDOF 7
ENDMDL
MODEL 11
REMARK VINA RESULT:    -6.497      3.589      5.199
REMARK INTER + INTRA:         -11.748
REMARK INTER:                 -11.088
REMARK INTRA:                  -0.659
REMARK UNBOUND:                -2.592
REMARK SMILES COC(=O)c1cccc(CCN(C)Cc2ccccc2)c1
REMARK SMILES IDX 10 1 11 2 12 3 13 4 14 5 15 6 16 7 20 8 17 9 19 10 18 11
REMARK SMILES IDX 9 12 8 13 21 14 7 15 5 16 6 17 3 18 4 19 2 20 1 21
REMARK H PARENT
REMARK INDEX MAP 4 1 3 2 2 3 1 4 15 5 16 6 17 7 21 8 18 9 20 10 19 11 5 12
REMARK INDEX MAP 6 13 10 14 7 15 9 16 8 17 11 18 12 19 13 20 14 21
ROOT
ATOM      1  C   UNL     1     131.868 125.960 123.078  1.00  0.00    +0.051 C 
ENDROOT
BRANCH   1   2
ATOM      2  C   UNL     1     131.680 125.958 124.609  1.00  0.00    +0.089 C 
BRANCH   2   3
ATOM      3  N   UNL     1     130.953 127.132 125.136  1.00  0.00    -0.302 NA
ATOM      4  C   UNL     1     131.301 127.391 126.537  1.00  0.00    +0.105 C 
BRANCH   3   5
ATOM      5  C   UNL     1     129.499 126.936 124.986  1.00  0.00    +0.119 C 
BRANCH   5   6
ATOM      6  C   UNL     1     128.885 127.805 123.906  1.00  0.00    -0.034 A 
ATOM      7  C   UNL     1     127.824 127.331 123.123  1.00  0.00    +0.005 A 
ATOM      8  C   UNL     1     129.389 129.092 123.660  1.00  0.00    +0.005 A 
ATOM      9  C   UNL     1     127.274 128.131 122.118  1.00  0.00    +0.000 A 
ATOM     10  C   UNL     1     128.838 129.889 122.656  1.00  0.00    +0.000 A 
ATOM     11  C   UNL     1     127.781 129.409 121.887  1.00  0.00    +0.000 A 
ENDBRANCH   5   6
ENDBRANCH   3   5
ENDBRANCH   2   3
ENDBRANCH   1   2
BRANCH   1  12
ATOM     12  C   UNL     1     133.182 125.362 122.632  1.00  0.00    -0.046 A 
ATOM     13  C   UNL     1     133.512 125.301 121.271  1.00  0.00    +0.004 A 
ATOM     14  C   UNL     1     134.083 124.841 123.571  1.00  0.00    +0.019 A 
ATOM     15  C   UNL     1     134.719 124.737 120.856  1.00  0.00    +0.001 A 
ATOM     16  C   UNL     1     135.299 124.272 123.162  1.00  0.00    +0.060 A 
ATOM     17  C   UNL     1     135.613 124.224 121.798  1.00  0.00    +0.016 A 
BRANCH  16  18
ATOM     18  C   UNL     1     136.211 123.737 124.210  1.00  0.00    +0.337 C 
ATOM     19  O   UNL     1     136.839 122.696 124.091  1.00  0.00    -0.246 OA
BRANCH  18  20
ATOM     20  O   UNL     1     136.236 124.559 125.290  1.00  0.00    -0.465 OA
ATOM     21  C   UNL     1     137.236 125.576 125.220  1.00  0.00    +0.282 C 
ENDBRANCH  18  20
ENDBRANCH  16  18
ENDBRANCH   1  12
TORSDOF 7
ENDMDL
MODEL 12
REMARK VINA RESULT:    -6.439      3.110      5.048
REMARK INTER + INTRA:         -11.665
REMARK INTER:                 -11.295
REMARK INTRA:                  -0.370
REMARK UNBOUND:                -2.592
REMARK SMILES COC(=O)c1cccc(CCN(C)Cc2ccccc2)c1
REMARK SMILES IDX 10 1 11 2 12 3 13 4 14 5 15 6 16 7 20 8 17 9 19 10 18 11
REMARK SMILES IDX 9 12 8 13 21 14 7 15 5 16 6 17 3 18 4 19 2 20 1 21
REMARK H PARENT
REMARK INDEX MAP 4 1 3 2 2 3 1 4 15 5 16 6 17 7 21 8 18 9 20 10 19 11 5 12
REMARK INDEX MAP 6 13 10 14 7 15 9 16 8 17 11 18 12 19 13 20 14 21
ROOT
ATOM      1  C   UNL     1     131.396 123.309 125.482  1.00  0.00    +0.051 C 
ENDROOT
BRANCH   1   2
ATOM      2  C   UNL     1     131.381 124.833 125.711  1.00  0.00    +0.089 C 
BRANCH   2   3
ATOM      3  N   UNL     1     130.686 125.602 124.658  1.00  0.00    -0.302 NA
ATOM      4  C   UNL     1     131.619 126.049 123.618  1.00  0.00    +0.105 C 
BRANCH   3   5
ATOM      5  C   UNL     1     129.977 126.751 125.253  1.00  0.00    +0.119 C 
BRANCH   5   6
ATOM      6  C   UNL     1     129.271 127.617 124.230  1.00  0.00    -0.034 A 
ATOM      7  C   UNL     1     128.177 127.124 123.507  1.00  0.00    +0.005 A 
ATOM      8  C   UNL     1     129.722 128.921 123.973  1.00  0.00    +0.005 A 
ATOM      9  C   UNL     1     127.541 127.922 122.553  1.00  0.00    +0.000 A 
ATOM     10  C   UNL     1     129.086 129.717 123.020  1.00  0.00    +0.000 A 
ATOM     11  C   UNL     1     127.996 129.218 122.311  1.00  0.00    +0.000 A 
ENDBRANCH   5   6
ENDBRANCH   3   5
ENDBRANCH   2   3
ENDBRANCH   1   2
BRANCH   1  12
ATOM     12  C   UNL     1     132.787 122.729 125.372  1.00  0.00    -0.046 A 
ATOM     13  C   UNL     1     133.137 121.576 126.088  1.00  0.00    +0.004 A 
ATOM     14  C   UNL     1     133.755 123.348 124.569  1.00  0.00    +0.019 A 
ATOM     15  C   UNL     1     134.426 121.047 125.998  1.00  0.00    +0.001 A 
ATOM     16  C   UNL     1     135.053 122.822 124.474  1.00  0.00    +0.060 A 
ATOM     17  C   UNL     1     135.383 121.667 125.193  1.00  0.00    +0.016 A 
BRANCH  16  18
ATOM     18  C   UNL     1     136.033 123.528 123.604  1.00  0.00    +0.337 C 
ATOM     19  O   UNL     1     136.829 122.952 122.878  1.00  0.00    -0.246 OA
BRANCH  18  20
ATOM     20  O   UNL     1     135.913 124.873 123.737  1.00  0.00    -0.465 OA
ATOM     21  C   UNL     1     136.829 125.447 124.669  1.00  0.00    +0.282 C 
ENDBRANCH  18  20
ENDBRANCH  16  18
ENDBRANCH   1  12
TORSDOF 7
ENDMDL
MODEL 13
REMARK VINA RESULT:    -6.365      2.895      6.228
REMARK INTER + INTRA:         -11.562
REMARK INTER:                 -10.909
REMARK INTRA:                  -0.653
REMARK UNBOUND:                -2.592
REMARK SMILES COC(=O)c1cccc(CCN(C)Cc2ccccc2)c1
REMARK SMILES IDX 10 1 11 2 12 3 13 4 14 5 15 6 16 7 20 8 17 9 19 10 18 11
REMARK SMILES IDX 9 12 8 13 21 14 7 15 5 16 6 17 3 18 4 19 2 20 1 21
REMARK H PARENT
REMARK INDEX MAP 4 1 3 2 2 3 1 4 15 5 16 6 17 7 21 8 18 9 20 10 19 11 5 12
REMARK INDEX MAP 6 13 10 14 7 15 9 16 8 17 11 18 12 19 13 20 14 21
ROOT
ATOM      1  C   UNL     1     132.612 124.859 122.276  1.00  0.00    +0.051 C 
ENDROOT
BRANCH   1   2
ATOM      2  C   UNL     1     133.669 125.898 121.853  1.00  0.00    +0.089 C 
BRANCH   2   3
ATOM      3  N   UNL     1     134.838 125.328 121.151  1.00  0.00    -0.302 NA
ATOM      4  C   UNL     1     136.092 125.900 121.650  1.00  0.00    +0.105 C 
BRANCH   3   5
ATOM      5  C   UNL     1     134.708 125.541 119.697  1.00  0.00    +0.119 C 
BRANCH   5   6
ATOM      6  C   UNL     1     134.703 124.252 118.900  1.00  0.00    -0.034 A 
ATOM      7  C   UNL     1     134.050 124.178 117.662  1.00  0.00    +0.005 A 
ATOM      8  C   UNL     1     135.335 123.105 119.404  1.00  0.00    +0.005 A 
ATOM      9  C   UNL     1     134.035 122.982 116.940  1.00  0.00    +0.000 A 
ATOM     10  C   UNL     1     135.320 121.910 118.681  1.00  0.00    +0.000 A 
ATOM     11  C   UNL     1     134.671 121.850 117.450  1.00  0.00    +0.000 A 
ENDBRANCH   5   6
ENDBRANCH   3   5
ENDBRANCH   2   3
ENDBRANCH   1   2
BRANCH   1  12
ATOM     12  C   UNL     1     132.713 124.453 123.729  1.00  0.00    -0.046 A 
ATOM     13  C   UNL     1     131.949 125.104 124.706  1.00  0.00    +0.004 A 
ATOM     14  C   UNL     1     133.591 123.433 124.124  1.00  0.00    +0.019 A 
ATOM     15  C   UNL     1     132.052 124.741 126.050  1.00  0.00    +0.001 A 
ATOM     16  C   UNL     1     133.700 123.062 125.473  1.00  0.00    +0.060 A 
ATOM     17  C   UNL     1     132.924 123.721 126.434  1.00  0.00    +0.016 A 
BRANCH  16  18
ATOM     18  C   UNL     1     134.650 121.970 125.825  1.00  0.00    +0.337 C 
ATOM     19  O   UNL     1     134.536 120.821 125.427  1.00  0.00    -0.246 OA
BRANCH  18  20
ATOM     20  O   UNL     1     135.635 122.434 126.635  1.00  0.00    -0.465 OA
ATOM     21  C   UNL     1     135.653 121.831 127.929  1.00  0.00    +0.282 C 
ENDBRANCH  18  20
ENDBRANCH  16  18
ENDBRANCH   1  12
TORSDOF 7
ENDMDL
MODEL 14
REMARK VINA RESULT:    -6.352      3.416      6.297
REMARK INTER + INTRA:         -11.542
REMARK INTER:                 -10.934
REMARK INTRA:                  -0.608
REMARK UNBOUND:                -2.592
REMARK SMILES COC(=O)c1cccc(CCN(C)Cc2ccccc2)c1
REMARK SMILES IDX 10 1 11 2 12 3 13 4 14 5 15 6 16 7 20 8 17 9 19 10 18 11
REMARK SMILES IDX 9 12 8 13 21 14 7 15 5 16 6 17 3 18 4 19 2 20 1 21
REMARK H PARENT
REMARK INDEX MAP 4 1 3 2 2 3 1 4 15 5 16 6 17 7 21 8 18 9 20 10 19 11 5 12
REMARK INDEX MAP 6 13 10 14 7 15 9 16 8 17 11 18 12 19 13 20 14 21
ROOT
ATOM      1  C   UNL     1     133.601 123.239 125.877  1.00  0.00    +0.051 C 
ENDROOT
BRANCH   1   2
ATOM      2  C   UNL     1     133.824 123.381 124.358  1.00  0.00    +0.089 C 
BRANCH   2   3
ATOM      3  N   UNL     1     135.135 123.950 123.984  1.00  0.00    -0.302 NA
ATOM      4  C   UNL     1     135.916 124.317 125.171  1.00  0.00    +0.105 C 
BRANCH   3   5
ATOM      5  C   UNL     1     134.947 125.117 123.101  1.00  0.00    +0.119 C 
BRANCH   5   6
ATOM      6  C   UNL     1     134.953 124.762 121.628  1.00  0.00    -0.034 A 
ATOM      7  C   UNL     1     135.635 123.628 121.167  1.00  0.00    +0.005 A 
ATOM      8  C   UNL     1     134.293 125.582 120.699  1.00  0.00    +0.005 A 
ATOM      9  C   UNL     1     135.650 123.315 119.806  1.00  0.00    +0.000 A 
ATOM     10  C   UNL     1     134.310 125.269 119.339  1.00  0.00    +0.000 A 
ATOM     11  C   UNL     1     134.987 124.136 118.894  1.00  0.00    +0.000 A 
ENDBRANCH   5   6
ENDBRANCH   3   5
ENDBRANCH   2   3
ENDBRANCH   1   2
BRANCH   1  12
ATOM     12  C   UNL     1     132.344 123.920 126.367  1.00  0.00    -0.046 A 
ATOM     13  C   UNL     1     131.220 123.167 126.733  1.00  0.00    +0.004 A 
ATOM     14  C   UNL     1     132.276 125.319 126.443  1.00  0.00    +0.019 A 
ATOM     15  C   UNL     1     130.055 123.795 127.173  1.00  0.00    +0.001 A 
ATOM     16  C   UNL     1     131.107 125.958 126.885  1.00  0.00    +0.060 A 
ATOM     17  C   UNL     1     129.996 125.188 127.251  1.00  0.00    +0.016 A 
BRANCH  16  18
ATOM     18  C   UNL     1     131.101 127.446 126.942  1.00  0.00    +0.337 C 
ATOM     19  O   UNL     1     131.395 128.159 125.995  1.00  0.00    -0.246 OA
BRANCH  18  20
ATOM     20  O   UNL     1     130.730 127.878 128.174  1.00  0.00    -0.465 OA
ATOM     21  C   UNL     1     131.651 128.793 128.768  1.00  0.00    +0.282 C 
ENDBRANCH  18  20
ENDBRANCH  16  18
ENDBRANCH   1  12
TORSDOF 7
ENDMDL
MODEL 15
REMARK VINA RESULT:    -6.219      1.923      2.985
REMARK INTER + INTRA:         -11.356
REMARK INTER:                 -11.107
REMARK INTRA:                  -0.249
REMARK UNBOUND:                -2.592
REMARK SMILES COC(=O)c1cccc(CCN(C)Cc2ccccc2)c1
REMARK SMILES IDX 10 1 11 2 12 3 13 4 14 5 15 6 16 7 20 8 17 9 19 10 18 11
REMARK SMILES IDX 9 12 8 13 21 14 7 15 5 16 6 17 3 18 4 19 2 20 1 21
REMARK H PARENT
REMARK INDEX MAP 4 1 3 2 2 3 1 4 15 5 16 6 17 7 21 8 18 9 20 10 19 11 5 12
REMARK INDEX MAP 6 13 10 14 7 15 9 16 8 17 11 18 12 19 13 20 14 21
ROOT
ATOM      1  C   UNL     1     136.512 123.076 121.984  1.00  0.00    +0.051 C 
ENDROOT
BRANCH   1   2
ATOM      2  C   UNL     1     135.744 122.877 123.306  1.00  0.00    +0.089 C 
BRANCH   2   3
ATOM      3  N   UNL     1     136.586 122.956 124.518  1.00  0.00    -0.302 NA
ATOM      4  C   UNL     1     136.367 121.803 125.397  1.00  0.00    +0.105 C 
BRANCH   3   5
ATOM      5  C   UNL     1     136.323 124.218 125.236  1.00  0.00    +0.119 C 
BRANCH   5   6
ATOM      6  C   UNL     1     134.847 124.530 125.380  1.00  0.00    -0.034 A 
ATOM      7  C   UNL     1     134.255 125.558 124.633  1.00  0.00    +0.005 A 
ATOM      8  C   UNL     1     134.055 123.808 126.286  1.00  0.00    +0.005 A 
ATOM      9  C   UNL     1     132.898 125.851 124.783  1.00  0.00    +0.000 A 
ATOM     10  C   UNL     1     132.699 124.102 126.436  1.00  0.00    +0.000 A 
ATOM     11  C   UNL     1     132.121 125.122 125.684  1.00  0.00    +0.000 A 
ENDBRANCH   5   6
ENDBRANCH   3   5
ENDBRANCH   2   3
ENDBRANCH   1   2
BRANCH   1  12
ATOM     12  C   UNL     1     135.732 123.850 120.946  1.00  0.00    -0.046 A 
ATOM     13  C   UNL     1     135.245 125.133 121.231  1.00  0.00    +0.004 A 
ATOM     14  C   UNL     1     135.467 123.288 119.689  1.00  0.00    +0.019 A 
ATOM     15  C   UNL     1     134.514 125.844 120.278  1.00  0.00    +0.001 A 
ATOM     16  C   UNL     1     134.732 123.997 118.726  1.00  0.00    +0.060 A 
ATOM     17  C   UNL     1     134.258 125.279 119.027  1.00  0.00    +0.016 A 
BRANCH  16  18
ATOM     18  C   UNL     1     134.486 123.343 117.411  1.00  0.00    +0.337 C 
ATOM     19  O   UNL     1     133.516 123.583 116.709  1.00  0.00    -0.246 OA
BRANCH  18  20
ATOM     20  O   UNL     1     135.476 122.462 117.120  1.00  0.00    -0.465 OA
ATOM     21  C   UNL     1     135.030 121.112 116.991  1.00  0.00    +0.282 C 
ENDBRANCH  18  20
ENDBRANCH  16  18
ENDBRANCH   1  12
TORSDOF 7
ENDMDL
MODEL 16
REMARK VINA RESULT:    -6.139      2.656      4.078
REMARK INTER + INTRA:         -11.243
REMARK INTER:                 -10.841
REMARK INTRA:                  -0.402
REMARK UNBOUND:                -2.592
REMARK SMILES COC(=O)c1cccc(CCN(C)Cc2ccccc2)c1
REMARK SMILES IDX 10 1 11 2 12 3 13 4 14 5 15 6 16 7 20 8 17 9 19 10 18 11
REMARK SMILES IDX 9 12 8 13 21 14 7 15 5 16 6 17 3 18 4 19 2 20 1 21
REMARK H PARENT
REMARK INDEX MAP 4 1 3 2 2 3 1 4 15 5 16 6 17 7 21 8 18 9 20 10 19 11 5 12
REMARK INDEX MAP 6 13 10 14 7 15 9 16 8 17 11 18 12 19 13 20 14 21
ROOT
ATOM      1  C   UNL     1     133.645 126.064 122.031  1.00  0.00    +0.051 C 
ENDROOT
BRANCH   1   2
ATOM      2  C   UNL     1     132.644 125.543 123.082  1.00  0.00    +0.089 C 
BRANCH   2   3
ATOM      3  N   UNL     1     132.878 126.049 124.451  1.00  0.00    -0.302 NA
ATOM      4  C   UNL     1     134.240 125.752 124.905  1.00  0.00    +0.105 C 
BRANCH   3   5
ATOM      5  C   UNL     1     131.882 125.479 125.378  1.00  0.00    +0.119 C 
BRANCH   5   6
ATOM      6  C   UNL     1     130.843 126.484 125.834  1.00  0.00    -0.034 A 
ATOM      7  C   UNL     1     130.983 127.153 127.058  1.00  0.00    +0.005 A 
ATOM      8  C   UNL     1     129.711 126.740 125.046  1.00  0.00    +0.005 A 
ATOM      9  C   UNL     1     130.013 128.066 127.480  1.00  0.00    +0.000 A 
ATOM     10  C   UNL     1     128.743 127.652 125.469  1.00  0.00    +0.000 A 
ATOM     11  C   UNL     1     128.895 128.315 126.685  1.00  0.00    +0.000 A 
ENDBRANCH   5   6
ENDBRANCH   3   5
ENDBRANCH   2   3
ENDBRANCH   1   2
BRANCH   1  12
ATOM     12  C   UNL     1     134.359 124.963 121.281  1.00  0.00    -0.046 A 
ATOM     13  C   UNL     1     135.152 124.032 121.965  1.00  0.00    +0.004 A 
ATOM     14  C   UNL     1     134.254 124.869 119.886  1.00  0.00    +0.019 A 
ATOM     15  C   UNL     1     135.823 123.023 121.272  1.00  0.00    +0.001 A 
ATOM     16  C   UNL     1     134.926 123.857 119.182  1.00  0.00    +0.060 A 
ATOM     17  C   UNL     1     135.710 122.933 119.883  1.00  0.00    +0.016 A 
BRANCH  16  18
ATOM     18  C   UNL     1     134.772 123.813 117.701  1.00  0.00    +0.337 C 
ATOM     19  O   UNL     1     135.413 123.066 116.979  1.00  0.00    -0.246 OA
BRANCH  18  20
ATOM     20  O   UNL     1     133.838 124.706 117.288  1.00  0.00    -0.465 OA
ATOM     21  C   UNL     1     132.722 124.111 116.626  1.00  0.00    +0.282 C 
ENDBRANCH  18  20
ENDBRANCH  16  18
ENDBRANCH   1  12
TORSDOF 7
ENDMDL
MODEL 17
REMARK VINA RESULT:    -6.029      3.770      6.054
REMARK INTER + INTRA:         -11.087
REMARK INTER:                  -9.889
REMARK INTRA:                  -1.198
REMARK UNBOUND:                -2.592
REMARK SMILES COC(=O)c1cccc(CCN(C)Cc2ccccc2)c1
REMARK SMILES IDX 10 1 11 2 12 3 13 4 14 5 15 6 16 7 20 8 17 9 19 10 18 11
REMARK SMILES IDX 9 12 8 13 21 14 7 15 5 16 6 17 3 18 4 19 2 20 1 21
REMARK H PARENT
REMARK INDEX MAP 4 1 3 2 2 3 1 4 15 5 16 6 17 7 21 8 18 9 20 10 19 11 5 12
REMARK INDEX MAP 6 13 10 14 7 15 9 16 8 17 11 18 12 19 13 20 14 21
ROOT
ATOM      1  C   UNL     1     133.349 122.053 126.141  1.00  0.00    +0.051 C 
ENDROOT
BRANCH   1   2
ATOM      2  C   UNL     1     134.746 122.423 126.678  1.00  0.00    +0.089 C 
BRANCH   2   3
ATOM      3  N   UNL     1     135.868 121.876 125.886  1.00  0.00    -0.302 NA
ATOM      4  C   UNL     1     136.711 120.990 126.696  1.00  0.00    +0.105 C 
BRANCH   3   5
ATOM      5  C   UNL     1     136.665 122.976 125.312  1.00  0.00    +0.119 C 
BRANCH   5   6
ATOM      6  C   UNL     1     136.082 123.534 124.029  1.00  0.00    -0.034 A 
ATOM      7  C   UNL     1     135.561 122.680 123.048  1.00  0.00    +0.005 A 
ATOM      8  C   UNL     1     136.078 124.918 123.796  1.00  0.00    +0.005 A 
ATOM      9  C   UNL     1     135.040 123.200 121.861  1.00  0.00    +0.000 A 
ATOM     10  C   UNL     1     135.557 125.437 122.610  1.00  0.00    +0.000 A 
ATOM     11  C   UNL     1     135.038 124.578 121.644  1.00  0.00    +0.000 A 
ENDBRANCH   5   6
ENDBRANCH   3   5
ENDBRANCH   2   3
ENDBRANCH   1   2
BRANCH   1  12
ATOM     12  C   UNL     1     132.403 123.230 126.060  1.00  0.00    -0.046 A 
ATOM     13  C   UNL     1     132.716 124.342 125.267  1.00  0.00    +0.004 A 
ATOM     14  C   UNL     1     131.209 123.235 126.793  1.00  0.00    +0.019 A 
ATOM     15  C   UNL     1     131.851 125.435 125.201  1.00  0.00    +0.001 A 
ATOM     16  C   UNL     1     130.334 124.331 126.733  1.00  0.00    +0.060 A 
ATOM     17  C   UNL     1     130.661 125.431 125.931  1.00  0.00    +0.016 A 
BRANCH  16  18
ATOM     18  C   UNL     1     129.081 124.273 127.536  1.00  0.00    +0.337 C 
ATOM     19  O   UNL     1     128.342 123.301 127.565  1.00  0.00    -0.246 OA
BRANCH  18  20
ATOM     20  O   UNL     1     128.890 125.433 128.213  1.00  0.00    -0.465 OA
ATOM     21  C   UNL     1     127.750 126.176 127.779  1.00  0.00    +0.282 C 
ENDBRANCH  18  20
ENDBRANCH  16  18
ENDBRANCH   1  12
TORSDOF 7
ENDMDL
MODEL 18
REMARK VINA RESULT:    -5.997      2.010      4.301
REMARK INTER + INTRA:         -11.042
REMARK INTER:                  -9.538
REMARK INTRA:                  -1.504
REMARK UNBOUND:                -2.592
REMARK SMILES COC(=O)c1cccc(CCN(C)Cc2ccccc2)c1
REMARK SMILES IDX 10 1 11 2 12 3 13 4 14 5 15 6 16 7 20 8 17 9 19 10 18 11
REMARK SMILES IDX 9 12 8 13 21 14 7 15 5 16 6 17 3 18 4 19 2 20 1 21
REMARK H PARENT
REMARK INDEX MAP 4 1 3 2 2 3 1 4 15 5 16 6 17 7 21 8 18 9 20 10 19 11 5 12
REMARK INDEX MAP 6 13 10 14 7 15 9 16 8 17 11 18 12 19 13 20 14 21
ROOT
ATOM      1  C   UNL     1     131.696 126.208 125.010  1.00  0.00    +0.051 C 
ENDROOT
BRANCH   1   2
ATOM      2  C   UNL     1     131.840 125.225 126.190  1.00  0.00    +0.089 C 
BRANCH   2   3
ATOM      3  N   UNL     1     131.414 123.843 125.888  1.00  0.00    -0.302 NA
ATOM      4  C   UNL     1     129.972 123.671 126.095  1.00  0.00    +0.105 C 
BRANCH   3   5
ATOM      5  C   UNL     1     132.179 122.887 126.711  1.00  0.00    +0.119 C 
BRANCH   5   6
ATOM      6  C   UNL     1     133.509 122.498 126.099  1.00  0.00    -0.034 A 
ATOM      7  C   UNL     1     133.728 122.623 124.721  1.00  0.00    +0.005 A 
ATOM      8  C   UNL     1     134.536 121.983 126.905  1.00  0.00    +0.005 A 
ATOM      9  C   UNL     1     134.951 122.247 124.161  1.00  0.00    +0.000 A 
ATOM     10  C   UNL     1     135.758 121.608 126.345  1.00  0.00    +0.000 A 
ATOM     11  C   UNL     1     135.965 121.741 124.974  1.00  0.00    +0.000 A 
ENDBRANCH   5   6
ENDBRANCH   3   5
ENDBRANCH   2   3
ENDBRANCH   1   2
BRANCH   1  12
ATOM     12  C   UNL     1     132.548 125.844 123.816  1.00  0.00    -0.046 A 
ATOM     13  C   UNL     1     131.966 125.292 122.667  1.00  0.00    +0.004 A 
ATOM     14  C   UNL     1     133.937 126.034 123.848  1.00  0.00    +0.019 A 
ATOM     15  C   UNL     1     132.754 124.943 121.569  1.00  0.00    +0.001 A 
ATOM     16  C   UNL     1     134.735 125.686 122.747  1.00  0.00    +0.060 A 
ATOM     17  C   UNL     1     134.135 125.140 121.606  1.00  0.00    +0.016 A 
BRANCH  16  18
ATOM     18  C   UNL     1     136.203 125.914 122.846  1.00  0.00    +0.337 C 
ATOM     19  O   UNL     1     136.825 126.647 122.092  1.00  0.00    -0.246 OA
BRANCH  18  20
ATOM     20  O   UNL     1     136.732 125.203 123.874  1.00  0.00    -0.465 OA
ATOM     21  C   UNL     1     137.337 126.009 124.885  1.00  0.00    +0.282 C 
ENDBRANCH  18  20
ENDBRANCH  16  18
ENDBRANCH   1  12
TORSDOF 7
ENDMDL
MODEL 19
REMARK VINA RESULT:    -5.936      3.252      5.906
REMARK INTER + INTRA:         -10.957
REMARK INTER:                 -10.300
REMARK INTRA:                  -0.657
REMARK UNBOUND:                -2.592
REMARK SMILES COC(=O)c1cccc(CCN(C)Cc2ccccc2)c1
REMARK SMILES IDX 10 1 11 2 12 3 13 4 14 5 15 6 16 7 20 8 17 9 19 10 18 11
REMARK SMILES IDX 9 12 8 13 21 14 7 15 5 16 6 17 3 18 4 19 2 20 1 21
REMARK H PARENT
REMARK INDEX MAP 4 1 3 2 2 3 1 4 15 5 16 6 17 7 21 8 18 9 20 10 19 11 5 12
REMARK INDEX MAP 6 13 10 14 7 15 9 16 8 17 11 18 12 19 13 20 14 21
ROOT
ATOM      1  C   UNL     1     132.378 123.065 125.959  1.00  0.00    +0.051 C 
ENDROOT
BRANCH   1   2
ATOM      2  C   UNL     1     133.671 123.626 126.584  1.00  0.00    +0.089 C 
BRANCH   2   3
ATOM      3  N   UNL     1     134.894 122.873 126.235  1.00  0.00    -0.302 NA
ATOM      4  C   UNL     1     135.440 122.170 127.400  1.00  0.00    +0.105 C 
BRANCH   3   5
ATOM      5  C   UNL     1     135.900 123.783 125.654  1.00  0.00    +0.119 C 
BRANCH   5   6
ATOM      6  C   UNL     1     135.836 123.862 124.143  1.00  0.00    -0.034 A 
ATOM      7  C   UNL     1     136.189 125.041 123.471  1.00  0.00    +0.005 A 
ATOM      8  C   UNL     1     135.398 122.759 123.393  1.00  0.00    +0.005 A 
ATOM      9  C   UNL     1     136.112 125.112 122.079  1.00  0.00    +0.000 A 
ATOM     10  C   UNL     1     135.321 122.832 122.001  1.00  0.00    +0.000 A 
ATOM     11  C   UNL     1     135.679 124.008 121.345  1.00  0.00    +0.000 A 
ENDBRANCH   5   6
ENDBRANCH   3   5
ENDBRANCH   2   3
ENDBRANCH   1   2
BRANCH   1  12
ATOM     12  C   UNL     1     131.156 123.908 126.245  1.00  0.00    -0.046 A 
ATOM     13  C   UNL     1     130.285 123.570 127.289  1.00  0.00    +0.004 A 
ATOM     14  C   UNL     1     130.864 125.029 125.455  1.00  0.00    +0.019 A 
ATOM     15  C   UNL     1     129.150 124.339 127.546  1.00  0.00    +0.001 A 
ATOM     16  C   UNL     1     129.724 125.808 125.707  1.00  0.00    +0.060 A 
ATOM     17  C   UNL     1     128.868 125.457 126.758  1.00  0.00    +0.016 A 
BRANCH  16  18
ATOM     18  C   UNL     1     129.472 126.986 124.831  1.00  0.00    +0.337 C 
ATOM     19  O   UNL     1     130.146 128.003 124.858  1.00  0.00    -0.246 OA
BRANCH  18  20
ATOM     20  O   UNL     1     128.406 126.763 124.021  1.00  0.00    -0.465 OA
ATOM     21  C   UNL     1     128.017 127.900 123.250  1.00  0.00    +0.282 C 
ENDBRANCH  18  20
ENDBRANCH  16  18
ENDBRANCH   1  12
TORSDOF 7
ENDMDL
MODEL 20
REMARK VINA RESULT:    -5.923      2.859      5.385
REMARK INTER + INTRA:         -10.939
REMARK INTER:                  -9.643
REMARK INTRA:                  -1.296
REMARK UNBOUND:                -2.592
REMARK SMILES COC(=O)c1cccc(CCN(C)Cc2ccccc2)c1
REMARK SMILES IDX 10 1 11 2 12 3 13 4 14 5 15 6 16 7 20 8 17 9 19 10 18 11
REMARK SMILES IDX 9 12 8 13 21 14 7 15 5 16 6 17 3 18 4 19 2 20 1 21
REMARK H PARENT
REMARK INDEX MAP 4 1 3 2 2 3 1 4 15 5 16 6 17 7 21 8 18 9 20 10 19 11 5 12
REMARK INDEX MAP 6 13 10 14 7 15 9 16 8 17 11 18 12 19 13 20 14 21
ROOT
ATOM      1  C   UNL     1     133.324 122.840 125.970  1.00  0.00    +0.051 C 
ENDROOT
BRANCH   1   2
ATOM      2  C   UNL     1     134.312 122.072 125.070  1.00  0.00    +0.089 C 
BRANCH   2   3
ATOM      3  N   UNL     1     135.696 122.027 125.584  1.00  0.00    -0.302 NA
ATOM      4  C   UNL     1     135.726 121.695 127.012  1.00  0.00    +0.105 C 
BRANCH   3   5
ATOM      5  C   UNL     1     136.372 123.314 125.332  1.00  0.00    +0.119 C 
BRANCH   5   6
ATOM      6  C   UNL     1     136.135 123.852 123.935  1.00  0.00    -0.034 A 
ATOM      7  C   UNL     1     135.913 125.220 123.723  1.00  0.00    +0.005 A 
ATOM      8  C   UNL     1     136.111 122.982 122.834  1.00  0.00    +0.005 A 
ATOM      9  C   UNL     1     135.679 125.707 122.435  1.00  0.00    +0.000 A 
ATOM     10  C   UNL     1     135.877 123.470 121.548  1.00  0.00    +0.000 A 
ATOM     11  C   UNL     1     135.662 124.832 121.349  1.00  0.00    +0.000 A 
ENDBRANCH   5   6
ENDBRANCH   3   5
ENDBRANCH   2   3
ENDBRANCH   1   2
BRANCH   1  12
ATOM     12  C   UNL     1     132.726 124.060 125.305  1.00  0.00    -0.046 A 
ATOM     13  C   UNL     1     132.489 124.074 123.924  1.00  0.00    +0.004 A 
ATOM     14  C   UNL     1     132.421 125.203 126.057  1.00  0.00    +0.019 A 
ATOM     15  C   UNL     1     131.950 125.204 123.307  1.00  0.00    +0.001 A 
ATOM     16  C   UNL     1     131.879 126.343 125.443  1.00  0.00    +0.060 A 
ATOM     17  C   UNL     1     131.644 126.336 124.063  1.00  0.00    +0.016 A 
BRANCH  16  18
ATOM     18  C   UNL     1     131.577 127.523 126.299  1.00  0.00    +0.337 C 
ATOM     19  O   UNL     1     132.437 128.243 126.783  1.00  0.00    -0.246 OA
BRANCH  18  20
ATOM     20  O   UNL     1     130.238 127.673 126.456  1.00  0.00    -0.465 OA
ATOM     21  C   UNL     1     129.793 127.522 127.805  1.00  0.00    +0.282 C 
ENDBRANCH  18  20
ENDBRANCH  16  18
ENDBRANCH   1  12
TORSDOF 7
ENDMDL
