MODEL 1
REMARK VINA RESULT:    -7.328      0.000      0.000
REMARK INTER + INTRA:         -12.824
REMARK INTER:                 -10.326
REMARK INTRA:                  -2.497
REMARK UNBOUND:                -2.497
REMARK SMILES COC(=O)c1cccc(CCN(C)Cc2ccccc2)c1
REMARK SMILES IDX 10 1 11 2 12 3 13 4 14 5 15 6 16 7 20 8 17 9 19 10 18 11
REMARK SMILES IDX 9 12 8 13 21 14 7 15 5 16 6 17 3 18 4 19 2 20 1 21
REMARK H PARENT
REMARK INDEX MAP 4 1 3 2 2 3 1 4 15 5 16 6 17 7 21 8 18 9 20 10 19 11 5 12
REMARK INDEX MAP 6 13 10 14 7 15 9 16 8 17 11 18 12 19 13 20 14 21
ROOT
ATOM      1  C   UNL     1     136.313 122.195 124.256  1.00  0.00    +0.051 C 
ENDROOT
BRANCH   1   2
ATOM      2  C   UNL     1     134.990 121.532 124.689  1.00  0.00    +0.089 C 
BRANCH   2   3
ATOM      3  N   UNL     1     134.293 122.225 125.793  1.00  0.00    -0.302 NA
ATOM      4  C   UNL     1     134.424 121.489 127.054  1.00  0.00    +0.105 C 
BRANCH   3   5
ATOM      5  C   UNL     1     132.872 122.424 125.449  1.00  0.00    +0.119 C 
BRANCH   5   6
ATOM      6  C   UNL     1     132.613 123.707 124.685  1.00  0.00    -0.034 A 
ATOM      7  C   UNL     1     132.287 123.676 123.322  1.00  0.00    +0.005 A 
ATOM      8  C   UNL     1     132.722 124.950 125.329  1.00  0.00    +0.005 A 
ATOM      9  C   UNL     1     132.067 124.864 122.621  1.00  0.00    +0.000 A 
ATOM     10  C   UNL     1     132.501 126.135 124.626  1.00  0.00    +0.000 A 
ATOM     11  C   UNL     1     132.173 126.091 123.273  1.00  0.00    +0.000 A 
ENDBRANCH   5   6
ENDBRANCH   3   5
ENDBRANCH   2   3
ENDBRANCH   1   2
BRANCH   1  12
ATOM     12  C   UNL     1     136.119 123.497 123.512  1.00  0.00    -0.046 A 
ATOM     13  C   UNL     1     136.294 124.724 124.166  1.00  0.00    +0.004 A 
ATOM     14  C   UNL     1     135.742 123.495 122.162  1.00  0.00    +0.019 A 
ATOM     15  C   UNL     1     136.102 125.926 123.484  1.00  0.00    +0.001 A 
ATOM     16  C   UNL     1     135.548 124.701 121.469  1.00  0.00    +0.060 A 
ATOM     17  C   UNL     1     135.731 125.917 122.138  1.00  0.00    +0.016 A 
BRANCH  16  18
ATOM     18  C   UNL     1     135.148 124.629 120.037  1.00  0.00    +0.337 C 
ATOM     19  O   UNL     1     134.639 125.559 119.431  1.00  0.00    -0.246 OA
BRANCH  18  20
ATOM     20  O   UNL     1     135.427 123.405 119.520  1.00  0.00    -0.465 OA
ATOM     21  C   UNL     1     135.031 123.248 118.157  1.00  0.00    +0.282 C 
ENDBRANCH  18  20
ENDBRANCH  16  18
ENDBRANCH   1  12
TORSDOF 7
ENDMDL
MODEL 2
REMARK VINA RESULT:    -7.298      3.167      6.056
REMARK INTER + INTRA:         -12.782
REMARK INTER:                 -10.506
REMARK INTRA:                  -2.276
REMARK UNBOUND:                -2.497
REMARK SMILES COC(=O)c1cccc(CCN(C)Cc2ccccc2)c1
REMARK SMILES IDX 10 1 11 2 12 3 13 4 14 5 15 6 16 7 20 8 17 9 19 10 18 11
REMARK SMILES IDX 9 12 8 13 21 14 7 15 5 16 6 17 3 18 4 19 2 20 1 21
REMARK H PARENT
REMARK INDEX MAP 4 1 3 2 2 3 1 4 15 5 16 6 17 7 21 8 18 9 20 10 19 11 5 12
REMARK INDEX MAP 6 13 10 14 7 15 9 16 8 17 11 18 12 19 13 20 14 21
ROOT
ATOM      1  C   UNL     1     132.794 124.917 122.116  1.00  0.00    +0.051 C 
ENDROOT
BRANCH   1   2
ATOM      2  C   UNL     1     134.224 124.394 121.870  1.00  0.00    +0.089 C 
BRANCH   2   3
ATOM      3  N   UNL     1     135.224 124.872 122.847  1.00  0.00    -0.302 NA
ATOM      4  C   UNL     1     136.039 125.957 122.291  1.00  0.00    +0.105 C 
BRANCH   3   5
ATOM      5  C   UNL     1     136.076 123.752 123.289  1.00  0.00    +0.119 C 
BRANCH   5   6
ATOM      6  C   UNL     1     135.556 123.055 124.529  1.00  0.00    -0.034 A 
ATOM      7  C   UNL     1     135.306 121.676 124.524  1.00  0.00    +0.005 A 
ATOM      8  C   UNL     1     135.294 123.788 125.697  1.00  0.00    +0.005 A 
ATOM      9  C   UNL     1     134.811 121.042 125.667  1.00  0.00    +0.000 A 
ATOM     10  C   UNL     1     134.799 123.154 126.838  1.00  0.00    +0.000 A 
ATOM     11  C   UNL     1     134.558 121.782 126.822  1.00  0.00    +0.000 A 
ENDBRANCH   5   6
ENDBRANCH   3   5
ENDBRANCH   2   3
ENDBRANCH   1   2
BRANCH   1  12
ATOM     12  C   UNL     1     132.284 124.643 123.512  1.00  0.00    -0.046 A 
ATOM     13  C   UNL     1     131.982 123.336 123.917  1.00  0.00    +0.004 A 
ATOM     14  C   UNL     1     132.084 125.696 124.416  1.00  0.00    +0.019 A 
ATOM     15  C   UNL     1     131.498 123.084 125.201  1.00  0.00    +0.001 A 
ATOM     16  C   UNL     1     131.598 125.450 125.709  1.00  0.00    +0.060 A 
ATOM     17  C   UNL     1     131.307 124.137 126.098  1.00  0.00    +0.016 A 
BRANCH  16  18
ATOM     18  C   UNL     1     131.409 126.613 126.620  1.00  0.00    +0.337 C 
ATOM     19  O   UNL     1     132.045 127.651 126.530  1.00  0.00    -0.246 OA
BRANCH  18  20
ATOM     20  O   UNL     1     130.448 126.350 127.542  1.00  0.00    -0.465 OA
ATOM     21  C   UNL     1     130.097 127.475 128.348  1.00  0.00    +0.282 C 
ENDBRANCH  18  20
ENDBRANCH  16  18
ENDBRANCH   1  12
TORSDOF 7
ENDMDL
MODEL 3
REMARK VINA RESULT:    -7.117      1.539      3.474
REMARK INTER + INTRA:         -12.526
REMARK INTER:                 -10.200
REMARK INTRA:                  -2.326
REMARK UNBOUND:                -2.497
REMARK SMILES COC(=O)c1cccc(CCN(C)Cc2ccccc2)c1
REMARK SMILES IDX 10 1 11 2 12 3 13 4 14 5 15 6 16 7 20 8 17 9 19 10 18 11
REMARK SMILES IDX 9 12 8 13 21 14 7 15 5 16 6 17 3 18 4 19 2 20 1 21
REMARK H PARENT
REMARK INDEX MAP 4 1 3 2 2 3 1 4 15 5 16 6 17 7 21 8 18 9 20 10 19 11 5 12
REMARK INDEX MAP 6 13 10 14 7 15 9 16 8 17 11 18 12 19 13 20 14 21
ROOT
ATOM      1  C   UNL     1     132.369 126.158 123.169  1.00  0.00    +0.051 C 
ENDROOT
BRANCH   1   2
ATOM      2  C   UNL     1     132.437 126.055 124.706  1.00  0.00    +0.089 C 
BRANCH   2   3
ATOM      3  N   UNL     1     131.894 124.797 125.258  1.00  0.00    -0.302 NA
ATOM      4  C   UNL     1     130.632 125.025 125.968  1.00  0.00    +0.105 C 
BRANCH   3   5
ATOM      5  C   UNL     1     132.887 124.164 126.148  1.00  0.00    +0.119 C 
BRANCH   5   6
ATOM      6  C   UNL     1     134.115 123.662 125.415  1.00  0.00    -0.034 A 
ATOM      7  C   UNL     1     135.398 124.079 125.797  1.00  0.00    +0.005 A 
ATOM      8  C   UNL     1     133.982 122.789 124.325  1.00  0.00    +0.005 A 
ATOM      9  C   UNL     1     136.524 123.626 125.107  1.00  0.00    +0.000 A 
ATOM     10  C   UNL     1     135.109 122.337 123.636  1.00  0.00    +0.000 A 
ATOM     11  C   UNL     1     136.379 122.754 124.028  1.00  0.00    +0.000 A 
ENDBRANCH   5   6
ENDBRANCH   3   5
ENDBRANCH   2   3
ENDBRANCH   1   2
BRANCH   1  12
ATOM     12  C   UNL     1     133.695 125.904 122.489  1.00  0.00    -0.046 A 
ATOM     13  C   UNL     1     134.885 126.397 123.041  1.00  0.00    +0.004 A 
ATOM     14  C   UNL     1     133.751 125.188 121.285  1.00  0.00    +0.019 A 
ATOM     15  C   UNL     1     136.108 126.175 122.407  1.00  0.00    +0.001 A 
ATOM     16  C   UNL     1     134.978 124.961 120.641  1.00  0.00    +0.060 A 
ATOM     17  C   UNL     1     136.157 125.457 121.210  1.00  0.00    +0.016 A 
BRANCH  16  18
ATOM     18  C   UNL     1     134.968 124.194 119.365  1.00  0.00    +0.337 C 
ATOM     19  O   UNL     1     135.589 123.155 119.197  1.00  0.00    -0.246 OA
BRANCH  18  20
ATOM     20  O   UNL     1     134.186 124.808 118.441  1.00  0.00    -0.465 OA
ATOM     21  C   UNL     1     133.813 123.968 117.349  1.00  0.00    +0.282 C 
ENDBRANCH  18  20
ENDBRANCH  16  18
ENDBRANCH   1  12
TORSDOF 7
ENDMDL
MODEL 4
REMARK VINA RESULT:    -6.721      2.754      5.313
REMARK INTER + INTRA:         -11.969
REMARK INTER:                  -9.954
REMARK INTRA:                  -2.015
REMARK UNBOUND:                -2.497
REMARK SMILES COC(=O)c1cccc(CCN(C)Cc2ccccc2)c1
REMARK SMILES IDX 10 1 11 2 12 3 13 4 14 5 15 6 16 7 20 8 17 9 19 10 18 11
REMARK SMILES IDX 9 12 8 13 21 14 7 15 5 16 6 17 3 18 4 19 2 20 1 21
REMARK H PARENT
REMARK INDEX MAP 4 1 3 2 2 3 1 4 15 5 16 6 17 7 21 8 18 9 20 10 19 11 5 12
REMARK INDEX MAP 6 13 10 14 7 15 9 16 8 17 11 18 12 19 13 20 14 21
ROOT
ATOM      1  C   UNL     1     133.073 122.484 125.549  1.00  0.00    +0.051 C 
ENDROOT
BRANCH   1   2
ATOM      2  C   UNL     1     134.388 122.721 126.319  1.00  0.00    +0.089 C 
BRANCH   2   3
ATOM      3  N   UNL     1     135.606 122.322 125.584  1.00  0.00    -0.302 NA
ATOM      4  C   UNL     1     136.442 121.422 126.384  1.00  0.00    +0.105 C 
BRANCH   3   5
ATOM      5  C   UNL     1     136.367 123.519 125.177  1.00  0.00    +0.119 C 
BRANCH   5   6
ATOM      6  C   UNL     1     136.107 123.936 123.744  1.00  0.00    -0.034 A 
ATOM      7  C   UNL     1     135.932 125.286 123.411  1.00  0.00    +0.005 A 
ATOM      8  C   UNL     1     136.015 122.970 122.730  1.00  0.00    +0.005 A 
ATOM      9  C   UNL     1     135.677 125.662 122.090  1.00  0.00    +0.000 A 
ATOM     10  C   UNL     1     135.759 123.347 121.411  1.00  0.00    +0.000 A 
ATOM     11  C   UNL     1     135.592 124.693 121.092  1.00  0.00    +0.000 A 
ENDBRANCH   5   6
ENDBRANCH   3   5
ENDBRANCH   2   3
ENDBRANCH   1   2
BRANCH   1  12
ATOM     12  C   UNL     1     132.569 123.712 124.826  1.00  0.00    -0.046 A 
ATOM     13  C   UNL     1     132.515 123.743 123.426  1.00  0.00    +0.004 A 
ATOM     14  C   UNL     1     132.167 124.846 125.545  1.00  0.00    +0.019 A 
ATOM     15  C   UNL     1     132.063 124.881 122.756  1.00  0.00    +0.001 A 
ATOM     16  C   UNL     1     131.711 125.994 124.878  1.00  0.00    +0.060 A 
ATOM     17  C   UNL     1     131.660 126.005 123.480  1.00  0.00    +0.016 A 
BRANCH  16  18
ATOM     18  C   UNL     1     131.299 127.165 125.701  1.00  0.00    +0.337 C 
ATOM     19  O   UNL     1     130.793 128.174 125.234  1.00  0.00    -0.246 OA
BRANCH  18  20
ATOM     20  O   UNL     1     131.564 126.947 127.014  1.00  0.00    -0.465 OA
ATOM     21  C   UNL     1     131.209 128.037 127.865  1.00  0.00    +0.282 C 
ENDBRANCH  18  20
ENDBRANCH  16  18
ENDBRANCH   1  12
TORSDOF 7
ENDMDL
MODEL 5
REMARK VINA RESULT:    -6.719      3.360      5.039
REMARK INTER + INTRA:         -11.966
REMARK INTER:                 -11.371
REMARK INTRA:                  -0.595
REMARK UNBOUND:                -2.497
REMARK SMILES COC(=O)c1cccc(CCN(C)Cc2ccccc2)c1
REMARK SMILES IDX 10 1 11 2 12 3 13 4 14 5 15 6 16 7 20 8 17 9 19 10 18 11
REMARK SMILES IDX 9 12 8 13 21 14 7 15 5 16 6 17 3 18 4 19 2 20 1 21
REMARK H PARENT
REMARK INDEX MAP 4 1 3 2 2 3 1 4 15 5 16 6 17 7 21 8 18 9 20 10 19 11 5 12
REMARK INDEX MAP 6 13 10 14 7 15 9 16 8 17 11 18 12 19 13 20 14 21
ROOT
ATOM      1  C   UNL     1     132.356 125.545 122.759  1.00  0.00    +0.051 C 
ENDROOT
BRANCH   1   2
ATOM      2  C   UNL     1     131.946 125.471 124.243  1.00  0.00    +0.089 C 
BRANCH   2   3
ATOM      3  N   UNL     1     131.387 126.727 124.785  1.00  0.00    -0.302 NA
ATOM      4  C   UNL     1     131.943 127.033 126.107  1.00  0.00    +0.105 C 
BRANCH   3   5
ATOM      5  C   UNL     1     129.915 126.642 124.844  1.00  0.00    +0.119 C 
BRANCH   5   6
ATOM      6  C   UNL     1     129.220 127.626 123.924  1.00  0.00    -0.034 A 
ATOM      7  C   UNL     1     128.094 127.241 123.183  1.00  0.00    +0.005 A 
ATOM      8  C   UNL     1     129.711 128.933 123.784  1.00  0.00    +0.005 A 
ATOM      9  C   UNL     1     127.469 128.148 122.325  1.00  0.00    +0.000 A 
ATOM     10  C   UNL     1     129.084 129.838 122.925  1.00  0.00    +0.000 A 
ATOM     11  C   UNL     1     127.964 129.445 122.197  1.00  0.00    +0.000 A 
ENDBRANCH   5   6
ENDBRANCH   3   5
ENDBRANCH   2   3
ENDBRANCH   1   2
BRANCH   1  12
ATOM     12  C   UNL     1     133.616 124.771 122.443  1.00  0.00    -0.046 A 
ATOM     13  C   UNL     1     134.221 124.878 121.183  1.00  0.00    +0.004 A 
ATOM     14  C   UNL     1     134.186 123.918 123.398  1.00  0.00    +0.019 A 
ATOM     15  C   UNL     1     135.376 124.154 120.885  1.00  0.00    +0.001 A 
ATOM     16  C   UNL     1     135.348 123.187 123.106  1.00  0.00    +0.060 A 
ATOM     17  C   UNL     1     135.941 123.311 121.844  1.00  0.00    +0.016 A 
BRANCH  16  18
ATOM     18  C   UNL     1     135.902 122.299 124.165  1.00  0.00    +0.337 C 
ATOM     19  O   UNL     1     137.036 122.403 124.607  1.00  0.00    -0.246 OA
BRANCH  18  20
ATOM     20  O   UNL     1     134.982 121.382 124.554  1.00  0.00    -0.465 OA
ATOM     21  C   UNL     1     135.019 121.078 125.949  1.00  0.00    +0.282 C 
ENDBRANCH  18  20
ENDBRANCH  16  18
ENDBRANCH   1  12
TORSDOF 7
ENDMDL
MODEL 6
REMARK VINA RESULT:    -6.613      1.851      3.780
REMARK INTER + INTRA:         -11.817
REMARK INTER:                 -11.253
REMARK INTRA:                  -0.564
REMARK UNBOUND:                -2.497
REMARK SMILES COC(=O)c1cccc(CCN(C)Cc2ccccc2)c1
REMARK SMILES IDX 10 1 11 2 12 3 13 4 14 5 15 6 16 7 20 8 17 9 19 10 18 11
REMARK SMILES IDX 9 12 8 13 21 14 7 15 5 16 6 17 3 18 4 19 2 20 1 21
REMARK H PARENT
REMARK INDEX MAP 4 1 3 2 2 3 1 4 15 5 16 6 17 7 21 8 18 9 20 10 19 11 5 12
REMARK INDEX MAP 6 13 10 14 7 15 9 16 8 17 11 18 12 19 13 20 14 21
ROOT
ATOM      1  C   UNL     1     132.918 125.931 122.508  1.00  0.00    +0.051 C 
ENDROOT
BRANCH   1   2
ATOM      2  C   UNL     1     133.140 125.818 124.030  1.00  0.00    +0.089 C 
BRANCH   2   3
ATOM      3  N   UNL     1     131.921 125.504 124.803  1.00  0.00    -0.302 NA
ATOM      4  C   UNL     1     130.948 126.600 124.734  1.00  0.00    +0.105 C 
BRANCH   3   5
ATOM      5  C   UNL     1     132.272 125.204 126.204  1.00  0.00    +0.119 C 
BRANCH   5   6
ATOM      6  C   UNL     1     132.921 123.847 126.382  1.00  0.00    -0.034 A 
ATOM      7  C   UNL     1     134.295 123.737 126.635  1.00  0.00    +0.005 A 
ATOM      8  C   UNL     1     132.156 122.675 126.271  1.00  0.00    +0.005 A 
ATOM      9  C   UNL     1     134.890 122.482 126.782  1.00  0.00    +0.000 A 
ATOM     10  C   UNL     1     132.752 121.422 126.418  1.00  0.00    +0.000 A 
ATOM     11  C   UNL     1     134.118 121.326 126.674  1.00  0.00    +0.000 A 
ENDBRANCH   5   6
ENDBRANCH   3   5
ENDBRANCH   2   3
ENDBRANCH   1   2
BRANCH   1  12
ATOM     12  C   UNL     1     133.984 125.238 121.690  1.00  0.00    -0.046 A 
ATOM     13  C   UNL     1     135.176 124.809 122.290  1.00  0.00    +0.004 A 
ATOM     14  C   UNL     1     133.805 125.033 120.315  1.00  0.00    +0.019 A 
ATOM     15  C   UNL     1     136.166 124.181 121.533  1.00  0.00    +0.001 A 
ATOM     16  C   UNL     1     134.797 124.403 119.548  1.00  0.00    +0.060 A 
ATOM     17  C   UNL     1     135.979 123.977 120.165  1.00  0.00    +0.016 A 
BRANCH  16  18
ATOM     18  C   UNL     1     134.544 124.216 118.092  1.00  0.00    +0.337 C 
ATOM     19  O   UNL     1     133.766 124.904 117.448  1.00  0.00    -0.246 OA
BRANCH  18  20
ATOM     20  O   UNL     1     135.287 123.192 117.603  1.00  0.00    -0.465 OA
ATOM     21  C   UNL     1     134.761 122.613 116.408  1.00  0.00    +0.282 C 
ENDBRANCH  18  20
ENDBRANCH  16  18
ENDBRANCH   1  12
TORSDOF 7
ENDMDL
MODEL 7
REMARK VINA RESULT:    -6.522      3.973      6.999
REMARK INTER + INTRA:         -11.688
REMARK INTER:                 -11.218
REMARK INTRA:                  -0.470
REMARK UNBOUND:                -2.497
REMARK SMILES COC(=O)c1cccc(CCN(C)Cc2ccccc2)c1
REMARK SMILES IDX 10 1 11 2 12 3 13 4 14 5 15 6 16 7 20 8 17 9 19 10 18 11
REMARK SMILES IDX 9 12 8 13 21 14 7 15 5 16 6 17 3 18 4 19 2 20 1 21
REMARK H PARENT
REMARK INDEX MAP 4 1 3 2 2 3 1 4 15 5 16 6 17 7 21 8 18 9 20 10 19 11 5 12
REMARK INDEX MAP 6 13 10 14 7 15 9 16 8 17 11 18 12 19 13 20 14 21
ROOT
ATOM      1  C   UNL     1     132.945 124.230 125.577  1.00  0.00    +0.051 C 
ENDROOT
BRANCH   1   2
ATOM      2  C   UNL     1     133.440 125.326 124.611  1.00  0.00    +0.089 C 
BRANCH   2   3
ATOM      3  N   UNL     1     134.760 125.055 124.006  1.00  0.00    -0.302 NA
ATOM      4  C   UNL     1     135.840 125.219 124.984  1.00  0.00    +0.105 C 
BRANCH   3   5
ATOM      5  C   UNL     1     134.972 125.933 122.840  1.00  0.00    +0.119 C 
BRANCH   5   6
ATOM      6  C   UNL     1     135.024 125.182 121.524  1.00  0.00    -0.034 A 
ATOM      7  C   UNL     1     135.814 124.033 121.386  1.00  0.00    +0.005 A 
ATOM      8  C   UNL     1     134.297 125.644 120.416  1.00  0.00    +0.005 A 
ATOM      9  C   UNL     1     135.869 123.356 120.166  1.00  0.00    +0.000 A 
ATOM     10  C   UNL     1     134.354 124.966 119.197  1.00  0.00    +0.000 A 
ATOM     11  C   UNL     1     135.139 123.822 119.073  1.00  0.00    +0.000 A 
ENDBRANCH   5   6
ENDBRANCH   3   5
ENDBRANCH   2   3
ENDBRANCH   1   2
BRANCH   1  12
ATOM     12  C   UNL     1     131.723 124.633 126.370  1.00  0.00    -0.046 A 
ATOM     13  C   UNL     1     130.770 123.677 126.746  1.00  0.00    +0.004 A 
ATOM     14  C   UNL     1     131.514 125.973 126.724  1.00  0.00    +0.019 A 
ATOM     15  C   UNL     1     129.635 124.049 127.466  1.00  0.00    +0.001 A 
ATOM     16  C   UNL     1     130.375 126.356 127.449  1.00  0.00    +0.060 A 
ATOM     17  C   UNL     1     129.436 125.386 127.819  1.00  0.00    +0.016 A 
BRANCH  16  18
ATOM     18  C   UNL     1     130.213 127.796 127.793  1.00  0.00    +0.337 C 
ATOM     19  O   UNL     1     129.667 128.607 127.062  1.00  0.00    -0.246 OA
BRANCH  18  20
ATOM     20  O   UNL     1     130.752 128.063 129.009  1.00  0.00    -0.465 OA
ATOM     21  C   UNL     1     131.896 128.916 128.961  1.00  0.00    +0.282 C 
ENDBRANCH  18  20
ENDBRANCH  16  18
ENDBRANCH   1  12
TORSDOF 7
ENDMDL
MODEL 8
REMARK VINA RESULT:    -6.508      1.912      3.849
REMARK INTER + INTRA:         -11.669
REMARK INTER:                 -11.074
REMARK INTRA:                  -0.595
REMARK UNBOUND:                -2.497
REMARK SMILES COC(=O)c1cccc(CCN(C)Cc2ccccc2)c1
REMARK SMILES IDX 10 1 11 2 12 3 13 4 14 5 15 6 16 7 20 8 17 9 19 10 18 11
REMARK SMILES IDX 9 12 8 13 21 14 7 15 5 16 6 17 3 18 4 19 2 20 1 21
REMARK H PARENT
REMARK INDEX MAP 4 1 3 2 2 3 1 4 15 5 16 6 17 7 21 8 18 9 20 10 19 11 5 12
REMARK INDEX MAP 6 13 10 14 7 15 9 16 8 17 11 18 12 19 13 20 14 21
ROOT
ATOM      1  C   UNL     1     134.455 125.887 122.341  1.00  0.00    +0.051 C 
ENDROOT
BRANCH   1   2
ATOM      2  C   UNL     1     134.250 125.341 123.768  1.00  0.00    +0.089 C 
BRANCH   2   3
ATOM      3  N   UNL     1     135.239 125.825 124.754  1.00  0.00    -0.302 NA
ATOM      4  C   UNL     1     135.995 126.969 124.234  1.00  0.00    +0.105 C 
BRANCH   3   5
ATOM      5  C   UNL     1     136.148 124.729 125.140  1.00  0.00    +0.119 C 
BRANCH   5   6
ATOM      6  C   UNL     1     135.425 123.442 125.482  1.00  0.00    -0.034 A 
ATOM      7  C   UNL     1     135.780 122.235 124.865  1.00  0.00    +0.005 A 
ATOM      8  C   UNL     1     134.370 123.447 126.408  1.00  0.00    +0.005 A 
ATOM      9  C   UNL     1     135.098 121.056 125.173  1.00  0.00    +0.000 A 
ATOM     10  C   UNL     1     133.689 122.268 126.714  1.00  0.00    +0.000 A 
ATOM     11  C   UNL     1     134.054 121.073 126.098  1.00  0.00    +0.000 A 
ENDBRANCH   5   6
ENDBRANCH   3   5
ENDBRANCH   2   3
ENDBRANCH   1   2
BRANCH   1  12
ATOM     12  C   UNL     1     135.001 124.860 121.376  1.00  0.00    -0.046 A 
ATOM     13  C   UNL     1     135.991 123.955 121.782  1.00  0.00    +0.004 A 
ATOM     14  C   UNL     1     134.540 124.810 120.053  1.00  0.00    +0.019 A 
ATOM     15  C   UNL     1     136.506 123.016 120.889  1.00  0.00    +0.001 A 
ATOM     16  C   UNL     1     135.053 123.868 119.148  1.00  0.00    +0.060 A 
ATOM     17  C   UNL     1     136.039 122.969 119.574  1.00  0.00    +0.016 A 
BRANCH  16  18
ATOM     18  C   UNL     1     134.520 123.868 117.757  1.00  0.00    +0.337 C 
ATOM     19  O   UNL     1     133.405 124.270 117.462  1.00  0.00    -0.246 OA
BRANCH  18  20
ATOM     20  O   UNL     1     135.437 123.368 116.891  1.00  0.00    -0.465 OA
ATOM     21  C   UNL     1     134.963 122.264 116.120  1.00  0.00    +0.282 C 
ENDBRANCH  18  20
ENDBRANCH  16  18
ENDBRANCH   1  12
TORSDOF 7
ENDMDL
MODEL 9
REMARK VINA RESULT:    -6.480      3.251      6.115
REMARK INTER + INTRA:         -11.630
REMARK INTER:                 -10.380
REMARK INTRA:                  -1.250
REMARK UNBOUND:                -2.497
REMARK SMILES COC(=O)c1cccc(CCN(C)Cc2ccccc2)c1
REMARK SMILES IDX 10 1 11 2 12 3 13 4 14 5 15 6 16 7 20 8 17 9 19 10 18 11
REMARK SMILES IDX 9 12 8 13 21 14 7 15 5 16 6 17 3 18 4 19 2 20 1 21
REMARK H PARENT
REMARK INDEX MAP 4 1 3 2 2 3 1 4 15 5 16 6 17 7 21 8 18 9 20 10 19 11 5 12
REMARK INDEX MAP 6 13 10 14 7 15 9 16 8 17 11 18 12 19 13 20 14 21
ROOT
ATOM      1  C   UNL     1     134.453 125.649 124.607  1.00  0.00    +0.051 C 
ENDROOT
BRANCH   1   2
ATOM      2  C   UNL     1     134.459 125.306 123.104  1.00  0.00    +0.089 C 
BRANCH   2   3
ATOM      3  N   UNL     1     135.751 124.797 122.600  1.00  0.00    -0.302 NA
ATOM      4  C   UNL     1     136.155 125.488 121.371  1.00  0.00    +0.105 C 
BRANCH   3   5
ATOM      5  C   UNL     1     135.670 123.340 122.379  1.00  0.00    +0.119 C 
BRANCH   5   6
ATOM      6  C   UNL     1     135.670 122.537 123.663  1.00  0.00    -0.034 A 
ATOM      7  C   UNL     1     136.740 122.627 124.564  1.00  0.00    +0.005 A 
ATOM      8  C   UNL     1     134.606 121.670 123.957  1.00  0.00    +0.005 A 
ATOM      9  C   UNL     1     136.741 121.871 125.739  1.00  0.00    +0.000 A 
ATOM     10  C   UNL     1     134.609 120.915 125.131  1.00  0.00    +0.000 A 
ATOM     11  C   UNL     1     135.676 121.017 126.021  1.00  0.00    +0.000 A 
ENDBRANCH   5   6
ENDBRANCH   3   5
ENDBRANCH   2   3
ENDBRANCH   1   2
BRANCH   1  12
ATOM     12  C   UNL     1     133.153 125.308 125.298  1.00  0.00    -0.046 A 
ATOM     13  C   UNL     1     133.020 124.112 126.017  1.00  0.00    +0.004 A 
ATOM     14  C   UNL     1     132.052 126.172 125.213  1.00  0.00    +0.019 A 
ATOM     15  C   UNL     1     131.816 123.789 126.644  1.00  0.00    +0.001 A 
ATOM     16  C   UNL     1     130.838 125.854 125.841  1.00  0.00    +0.060 A 
ATOM     17  C   UNL     1     130.726 124.657 126.558  1.00  0.00    +0.016 A 
BRANCH  16  18
ATOM     18  C   UNL     1     129.709 126.816 125.711  1.00  0.00    +0.337 C 
ATOM     19  O   UNL     1     129.638 127.863 126.336  1.00  0.00    -0.246 OA
BRANCH  18  20
ATOM     20  O   UNL     1     128.794 126.365 124.817  1.00  0.00    -0.465 OA
ATOM     21  C   UNL     1     128.561 127.257 123.726  1.00  0.00    +0.282 C 
ENDBRANCH  18  20
ENDBRANCH  16  18
ENDBRANCH   1  12
TORSDOF 7
ENDMDL
MODEL 10
REMARK VINA RESULT:    -6.411      2.885      5.631
REMARK INTER + INTRA:         -11.532
REMARK INTER:                  -9.244
REMARK INTRA:                  -2.288
REMARK UNBOUND:                -2.497
REMARK SMILES COC(=O)c1cccc(CCN(C)Cc2ccccc2)c1
REMARK SMILES IDX 10 1 11 2 12 3 13 4 14 5 15 6 16 7 20 8 17 9 19 10 18 11
REMARK SMILES IDX 9 12 8 13 21 14 7 15 5 16 6 17 3 18 4 19 2 20 1 21
REMARK H PARENT
REMARK INDEX MAP 4 1 3 2 2 3 1 4 15 5 16 6 17 7 21 8 18 9 20 10 19 11 5 12
REMARK INDEX MAP 6 13 10 14 7 15 9 16 8 17 11 18 12 19 13 20 14 21
ROOT
ATOM      1  C   UNL     1     132.582 124.753 122.047  1.00  0.00    +0.051 C 
ENDROOT
BRANCH   1   2
ATOM      2  C   UNL     1     133.881 124.308 121.346  1.00  0.00    +0.089 C 
BRANCH   2   3
ATOM      3  N   UNL     1     134.612 125.398 120.667  1.00  0.00    -0.302 NA
ATOM      4  C   UNL     1     134.558 125.250 119.209  1.00  0.00    +0.105 C 
BRANCH   3   5
ATOM      5  C   UNL     1     136.010 125.439 121.137  1.00  0.00    +0.119 C 
BRANCH   5   6
ATOM      6  C   UNL     1     136.134 125.527 122.645  1.00  0.00    -0.034 A 
ATOM      7  C   UNL     1     136.008 126.757 123.304  1.00  0.00    +0.005 A 
ATOM      8  C   UNL     1     136.401 124.375 123.401  1.00  0.00    +0.005 A 
ATOM      9  C   UNL     1     136.140 126.833 124.692  1.00  0.00    +0.000 A 
ATOM     10  C   UNL     1     136.533 124.452 124.789  1.00  0.00    +0.000 A 
ATOM     11  C   UNL     1     136.402 125.680 125.433  1.00  0.00    +0.000 A 
ENDBRANCH   5   6
ENDBRANCH   3   5
ENDBRANCH   2   3
ENDBRANCH   1   2
BRANCH   1  12
ATOM     12  C   UNL     1     132.664 124.704 123.555  1.00  0.00    -0.046 A 
ATOM     13  C   UNL     1     132.497 125.868 124.317  1.00  0.00    +0.004 A 
ATOM     14  C   UNL     1     132.930 123.495 124.215  1.00  0.00    +0.019 A 
ATOM     15  C   UNL     1     132.586 125.827 125.709  1.00  0.00    +0.001 A 
ATOM     16  C   UNL     1     133.021 123.445 125.615  1.00  0.00    +0.060 A 
ATOM     17  C   UNL     1     132.846 124.618 126.358  1.00  0.00    +0.016 A 
BRANCH  16  18
ATOM     18  C   UNL     1     133.305 122.130 126.252  1.00  0.00    +0.337 C 
ATOM     19  O   UNL     1     132.436 121.332 126.569  1.00  0.00    -0.246 OA
BRANCH  18  20
ATOM     20  O   UNL     1     134.640 121.957 126.423  1.00  0.00    -0.465 OA
ATOM     21  C   UNL     1     135.219 121.001 125.535  1.00  0.00    +0.282 C 
ENDBRANCH  18  20
ENDBRANCH  16  18
ENDBRANCH   1  12
TORSDOF 7
ENDMDL
MODEL 11
REMARK VINA RESULT:    -6.408      3.158      5.979
REMARK INTER + INTRA:         -11.528
REMARK INTER:                 -10.083
REMARK INTRA:                  -1.445
REMARK UNBOUND:                -2.497
REMARK SMILES COC(=O)c1cccc(CCN(C)Cc2ccccc2)c1
REMARK SMILES IDX 10 1 11 2 12 3 13 4 14 5 15 6 16 7 20 8 17 9 19 10 18 11
REMARK SMILES IDX 9 12 8 13 21 14 7 15 5 16 6 17 3 18 4 19 2 20 1 21
REMARK H PARENT
REMARK INDEX MAP 4 1 3 2 2 3 1 4 15 5 16 6 17 7 21 8 18 9 20 10 19 11 5 12
REMARK INDEX MAP 6 13 10 14 7 15 9 16 8 17 11 18 12 19 13 20 14 21
ROOT
ATOM      1  C   UNL     1     132.936 125.190 121.390  1.00  0.00    +0.051 C 
ENDROOT
BRANCH   1   2
ATOM      2  C   UNL     1     134.105 126.186 121.259  1.00  0.00    +0.089 C 
BRANCH   2   3
ATOM      3  N   UNL     1     135.223 125.709 120.418  1.00  0.00    -0.302 NA
ATOM      4  C   UNL     1     134.881 124.458 119.735  1.00  0.00    +0.105 C 
BRANCH   3   5
ATOM      5  C   UNL     1     136.438 125.543 121.238  1.00  0.00    +0.119 C 
BRANCH   5   6
ATOM      6  C   UNL     1     136.213 124.705 122.481  1.00  0.00    -0.034 A 
ATOM      7  C   UNL     1     136.083 123.313 122.392  1.00  0.00    +0.005 A 
ATOM      8  C   UNL     1     136.108 125.319 123.739  1.00  0.00    +0.005 A 
ATOM      9  C   UNL     1     135.859 122.549 123.540  1.00  0.00    +0.000 A 
ATOM     10  C   UNL     1     135.884 124.554 124.885  1.00  0.00    +0.000 A 
ATOM     11  C   UNL     1     135.761 123.170 124.785  1.00  0.00    +0.000 A 
ENDBRANCH   5   6
ENDBRANCH   3   5
ENDBRANCH   2   3
ENDBRANCH   1   2
BRANCH   1  12
ATOM     12  C   UNL     1     132.463 124.999 122.812  1.00  0.00    -0.046 A 
ATOM     13  C   UNL     1     132.392 123.717 123.374  1.00  0.00    +0.004 A 
ATOM     14  C   UNL     1     132.068 126.100 123.585  1.00  0.00    +0.019 A 
ATOM     15  C   UNL     1     131.942 123.538 124.683  1.00  0.00    +0.001 A 
ATOM     16  C   UNL     1     131.615 125.928 124.902  1.00  0.00    +0.060 A 
ATOM     17  C   UNL     1     131.555 124.640 125.448  1.00  0.00    +0.016 A 
BRANCH  16  18
ATOM     18  C   UNL     1     131.211 127.140 125.668  1.00  0.00    +0.337 C 
ATOM     19  O   UNL     1     131.969 127.763 126.395  1.00  0.00    -0.246 OA
BRANCH  18  20
ATOM     20  O   UNL     1     129.907 127.438 125.443  1.00  0.00    -0.465 OA
ATOM     21  C   UNL     1     129.703 128.700 124.807  1.00  0.00    +0.282 C 
ENDBRANCH  18  20
ENDBRANCH  16  18
ENDBRANCH   1  12
TORSDOF 7
ENDMDL
MODEL 12
REMARK VINA RESULT:    -6.338      2.944      4.238
REMARK INTER + INTRA:         -11.429
REMARK INTER:                 -10.857
REMARK INTRA:                  -0.572
REMARK UNBOUND:                -2.497
REMARK SMILES COC(=O)c1cccc(CCN(C)Cc2ccccc2)c1
REMARK SMILES IDX 10 1 11 2 12 3 13 4 14 5 15 6 16 7 20 8 17 9 19 10 18 11
REMARK SMILES IDX 9 12 8 13 21 14 7 15 5 16 6 17 3 18 4 19 2 20 1 21
REMARK H PARENT
REMARK INDEX MAP 4 1 3 2 2 3 1 4 15 5 16 6 17 7 21 8 18 9 20 10 19 11 5 12
REMARK INDEX MAP 6 13 10 14 7 15 9 16 8 17 11 18 12 19 13 20 14 21
ROOT
ATOM      1  C   UNL     1     132.500 124.303 124.837  1.00  0.00    +0.051 C 
ENDROOT
BRANCH   1   2
ATOM      2  C   UNL     1     131.602 125.274 124.044  1.00  0.00    +0.089 C 
BRANCH   2   3
ATOM      3  N   UNL     1     131.366 126.570 124.713  1.00  0.00    -0.302 NA
ATOM      4  C   UNL     1     132.150 126.685 125.947  1.00  0.00    +0.105 C 
BRANCH   3   5
ATOM      5  C   UNL     1     129.927 126.741 124.990  1.00  0.00    +0.119 C 
BRANCH   5   6
ATOM      6  C   UNL     1     129.229 127.649 123.998  1.00  0.00    -0.034 A 
ATOM      7  C   UNL     1     129.652 128.972 123.816  1.00  0.00    +0.005 A 
ATOM      8  C   UNL     1     128.129 127.180 123.262  1.00  0.00    +0.005 A 
ATOM      9  C   UNL     1     128.993 129.808 122.911  1.00  0.00    +0.000 A 
ATOM     10  C   UNL     1     127.471 128.017 122.358  1.00  0.00    +0.000 A 
ATOM     11  C   UNL     1     127.904 129.329 122.183  1.00  0.00    +0.000 A 
ENDBRANCH   5   6
ENDBRANCH   3   5
ENDBRANCH   2   3
ENDBRANCH   1   2
BRANCH   1  12
ATOM     12  C   UNL     1     133.693 123.807 124.052  1.00  0.00    -0.046 A 
ATOM     13  C   UNL     1     134.428 122.700 124.495  1.00  0.00    +0.004 A 
ATOM     14  C   UNL     1     134.094 124.461 122.878  1.00  0.00    +0.019 A 
ATOM     15  C   UNL     1     135.538 122.249 123.779  1.00  0.00    +0.001 A 
ATOM     16  C   UNL     1     135.209 124.013 122.152  1.00  0.00    +0.060 A 
ATOM     17  C   UNL     1     135.928 122.903 122.608  1.00  0.00    +0.016 A 
BRANCH  16  18
ATOM     18  C   UNL     1     135.581 124.753 120.914  1.00  0.00    +0.337 C 
ATOM     19  O   UNL     1     136.541 125.504 120.840  1.00  0.00    -0.246 OA
BRANCH  18  20
ATOM     20  O   UNL     1     134.715 124.473 119.908  1.00  0.00    -0.465 OA
ATOM     21  C   UNL     1     135.262 123.634 118.890  1.00  0.00    +0.282 C 
ENDBRANCH  18  20
ENDBRANCH  16  18
ENDBRANCH   1  12
TORSDOF 7
ENDMDL
MODEL 13
REMARK VINA RESULT:    -6.260      4.050      7.160
REMARK INTER + INTRA:         -11.319
REMARK INTER:                 -10.673
REMARK INTRA:                  -0.647
REMARK UNBOUND:                -2.497
REMARK SMILES COC(=O)c1cccc(CCN(C)Cc2ccccc2)c1
REMARK SMILES IDX 10 1 11 2 12 3 13 4 14 5 15 6 16 7 20 8 17 9 19 10 18 11
REMARK SMILES IDX 9 12 8 13 21 14 7 15 5 16 6 17 3 18 4 19 2 20 1 21
REMARK H PARENT
REMARK INDEX MAP 4 1 3 2 2 3 1 4 15 5 16 6 17 7 21 8 18 9 20 10 19 11 5 12
REMARK INDEX MAP 6 13 10 14 7 15 9 16 8 17 11 18 12 19 13 20 14 21
ROOT
ATOM      1  C   UNL     1     131.924 126.254 123.418  1.00  0.00    +0.051 C 
ENDROOT
BRANCH   1   2
ATOM      2  C   UNL     1     132.635 124.988 123.938  1.00  0.00    +0.089 C 
BRANCH   2   3
ATOM      3  N   UNL     1     134.079 124.930 123.631  1.00  0.00    -0.302 NA
ATOM      4  C   UNL     1     134.889 125.293 124.798  1.00  0.00    +0.105 C 
BRANCH   3   5
ATOM      5  C   UNL     1     134.389 125.808 122.486  1.00  0.00    +0.119 C 
BRANCH   5   6
ATOM      6  C   UNL     1     134.673 125.047 121.206  1.00  0.00    -0.034 A 
ATOM      7  C   UNL     1     134.264 125.554 119.966  1.00  0.00    +0.005 A 
ATOM      8  C   UNL     1     135.331 123.808 121.250  1.00  0.00    +0.005 A 
ATOM      9  C   UNL     1     134.514 124.840 118.792  1.00  0.00    +0.000 A 
ATOM     10  C   UNL     1     135.580 123.095 120.076  1.00  0.00    +0.000 A 
ATOM     11  C   UNL     1     135.173 123.612 118.848  1.00  0.00    +0.000 A 
ENDBRANCH   5   6
ENDBRANCH   3   5
ENDBRANCH   2   3
ENDBRANCH   1   2
BRANCH   1  12
ATOM     12  C   UNL     1     130.829 126.749 124.335  1.00  0.00    -0.046 A 
ATOM     13  C   UNL     1     129.566 127.077 123.825  1.00  0.00    +0.004 A 
ATOM     14  C   UNL     1     131.068 126.909 125.707  1.00  0.00    +0.019 A 
ATOM     15  C   UNL     1     128.558 127.547 124.668  1.00  0.00    +0.001 A 
ATOM     16  C   UNL     1     130.059 127.382 126.561  1.00  0.00    +0.060 A 
ATOM     17  C   UNL     1     128.802 127.699 126.034  1.00  0.00    +0.016 A 
BRANCH  16  18
ATOM     18  C   UNL     1     130.378 127.529 128.009  1.00  0.00    +0.337 C 
ATOM     19  O   UNL     1     129.563 127.354 128.901  1.00  0.00    -0.246 OA
BRANCH  18  20
ATOM     20  O   UNL     1     131.678 127.878 128.181  1.00  0.00    -0.465 OA
ATOM     21  C   UNL     1     131.870 128.972 129.078  1.00  0.00    +0.282 C 
ENDBRANCH  18  20
ENDBRANCH  16  18
ENDBRANCH   1  12
TORSDOF 7
ENDMDL
MODEL 14
REMARK VINA RESULT:    -6.238      3.370      5.402
REMARK INTER + INTRA:         -11.287
REMARK INTER:                 -10.744
REMARK INTRA:                  -0.543
REMARK UNBOUND:                -2.497
REMARK SMILES COC(=O)c1cccc(CCN(C)Cc2ccccc2)c1
REMARK SMILES IDX 10 1 11 2 12 3 13 4 14 5 15 6 16 7 20 8 17 9 19 10 18 11
REMARK SMILES IDX 9 12 8 13 21 14 7 15 5 16 6 17 3 18 4 19 2 20 1 21
REMARK H PARENT
REMARK INDEX MAP 4 1 3 2 2 3 1 4 15 5 16 6 17 7 21 8 18 9 20 10 19 11 5 12
REMARK INDEX MAP 6 13 10 14 7 15 9 16 8 17 11 18 12 19 13 20 14 21
ROOT
ATOM      1  C   UNL     1     131.231 124.436 125.856  1.00  0.00    +0.051 C 
ENDROOT
BRANCH   1   2
ATOM      2  C   UNL     1     131.542 125.766 126.572  1.00  0.00    +0.089 C 
BRANCH   2   3
ATOM      3  N   UNL     1     130.548 126.833 126.335  1.00  0.00    -0.302 NA
ATOM      4  C   UNL     1     129.927 127.271 127.590  1.00  0.00    +0.105 C 
BRANCH   3   5
ATOM      5  C   UNL     1     129.524 126.368 125.380  1.00  0.00    +0.119 C 
BRANCH   5   6
ATOM      6  C   UNL     1     129.111 127.430 124.380  1.00  0.00    -0.034 A 
ATOM      7  C   UNL     1     128.072 127.191 123.470  1.00  0.00    +0.005 A 
ATOM      8  C   UNL     1     129.782 128.662 124.337  1.00  0.00    +0.005 A 
ATOM      9  C   UNL     1     127.707 128.168 122.541  1.00  0.00    +0.000 A 
ATOM     10  C   UNL     1     129.416 129.637 123.407  1.00  0.00    +0.000 A 
ATOM     11  C   UNL     1     128.379 129.389 122.511  1.00  0.00    +0.000 A 
ENDBRANCH   5   6
ENDBRANCH   3   5
ENDBRANCH   2   3
ENDBRANCH   1   2
BRANCH   1  12
ATOM     12  C   UNL     1     132.421 123.508 125.765  1.00  0.00    -0.046 A 
ATOM     13  C   UNL     1     132.392 122.248 126.376  1.00  0.00    +0.004 A 
ATOM     14  C   UNL     1     133.582 123.904 125.084  1.00  0.00    +0.019 A 
ATOM     15  C   UNL     1     133.495 121.396 126.304  1.00  0.00    +0.001 A 
ATOM     16  C   UNL     1     134.695 123.053 125.008  1.00  0.00    +0.060 A 
ATOM     17  C   UNL     1     134.644 121.795 125.620  1.00  0.00    +0.016 A 
BRANCH  16  18
ATOM     18  C   UNL     1     135.896 123.534 124.270  1.00  0.00    +0.337 C 
ATOM     19  O   UNL     1     136.730 122.789 123.780  1.00  0.00    -0.246 OA
BRANCH  18  20
ATOM     20  O   UNL     1     135.922 124.890 124.227  1.00  0.00    -0.465 OA
ATOM     21  C   UNL     1     136.950 125.475 125.027  1.00  0.00    +0.282 C 
ENDBRANCH  18  20
ENDBRANCH  16  18
ENDBRANCH   1  12
TORSDOF 7
ENDMDL
MODEL 15
REMARK VINA RESULT:    -6.211      3.257      6.514
REMARK INTER + INTRA:         -11.250
REMARK INTER:                 -10.781
REMARK INTRA:                  -0.469
REMARK UNBOUND:                -2.497
REMARK SMILES COC(=O)c1cccc(CCN(C)Cc2ccccc2)c1
REMARK SMILES IDX 10 1 11 2 12 3 13 4 14 5 15 6 16 7 20 8 17 9 19 10 18 11
REMARK SMILES IDX 9 12 8 13 21 14 7 15 5 16 6 17 3 18 4 19 2 20 1 21
REMARK H PARENT
REMARK INDEX MAP 4 1 3 2 2 3 1 4 15 5 16 6 17 7 21 8 18 9 20 10 19 11 5 12
REMARK INDEX MAP 6 13 10 14 7 15 9 16 8 17 11 18 12 19 13 20 14 21
ROOT
ATOM      1  C   UNL     1     134.129 123.696 122.721  1.00  0.00    +0.051 C 
ENDROOT
BRANCH   1   2
ATOM      2  C   UNL     1     135.638 123.918 122.501  1.00  0.00    +0.089 C 
BRANCH   2   3
ATOM      3  N   UNL     1     135.971 124.684 121.282  1.00  0.00    -0.302 NA
ATOM      4  C   UNL     1     136.598 125.968 121.613  1.00  0.00    +0.105 C 
BRANCH   3   5
ATOM      5  C   UNL     1     134.759 124.890 120.466  1.00  0.00    +0.119 C 
BRANCH   5   6
ATOM      6  C   UNL     1     134.705 124.005 119.237  1.00  0.00    -0.034 A 
ATOM      7  C   UNL     1     134.063 124.439 118.070  1.00  0.00    +0.005 A 
ATOM      8  C   UNL     1     135.280 122.725 119.260  1.00  0.00    +0.005 A 
ATOM      9  C   UNL     1     134.003 123.612 116.946  1.00  0.00    +0.000 A 
ATOM     10  C   UNL     1     135.220 121.900 118.136  1.00  0.00    +0.000 A 
ATOM     11  C   UNL     1     134.582 122.344 116.980  1.00  0.00    +0.000 A 
ENDBRANCH   5   6
ENDBRANCH   3   5
ENDBRANCH   2   3
ENDBRANCH   1   2
BRANCH   1  12
ATOM     12  C   UNL     1     133.796 123.121 124.079  1.00  0.00    -0.046 A 
ATOM     13  C   UNL     1     134.587 122.108 124.637  1.00  0.00    +0.004 A 
ATOM     14  C   UNL     1     132.678 123.578 124.792  1.00  0.00    +0.019 A 
ATOM     15  C   UNL     1     134.274 121.566 125.885  1.00  0.00    +0.001 A 
ATOM     16  C   UNL     1     132.357 123.038 126.047  1.00  0.00    +0.060 A 
ATOM     17  C   UNL     1     133.162 122.030 126.590  1.00  0.00    +0.016 A 
BRANCH  16  18
ATOM     18  C   UNL     1     131.156 123.568 126.751  1.00  0.00    +0.337 C 
ATOM     19  O   UNL     1     130.317 122.858 127.282  1.00  0.00    -0.246 OA
BRANCH  18  20
ATOM     20  O   UNL     1     131.137 124.924 126.713  1.00  0.00    -0.465 OA
ATOM     21  C   UNL     1     130.091 125.511 127.488  1.00  0.00    +0.282 C 
ENDBRANCH  18  20
ENDBRANCH  16  18
ENDBRANCH   1  12
TORSDOF 7
ENDMDL
MODEL 16
REMARK VINA RESULT:    -6.145      3.237      6.704
REMARK INTER + INTRA:         -11.157
REMARK INTER:                 -10.571
REMARK INTRA:                  -0.585
REMARK UNBOUND:                -2.497
REMARK SMILES COC(=O)c1cccc(CCN(C)Cc2ccccc2)c1
REMARK SMILES IDX 10 1 11 2 12 3 13 4 14 5 15 6 16 7 20 8 17 9 19 10 18 11
REMARK SMILES IDX 9 12 8 13 21 14 7 15 5 16 6 17 3 18 4 19 2 20 1 21
REMARK H PARENT
REMARK INDEX MAP 4 1 3 2 2 3 1 4 15 5 16 6 17 7 21 8 18 9 20 10 19 11 5 12
REMARK INDEX MAP 6 13 10 14 7 15 9 16 8 17 11 18 12 19 13 20 14 21
ROOT
ATOM      1  C   UNL     1     132.951 125.124 121.940  1.00  0.00    +0.051 C 
ENDROOT
BRANCH   1   2
ATOM      2  C   UNL     1     134.492 125.129 121.995  1.00  0.00    +0.089 C 
BRANCH   2   3
ATOM      3  N   UNL     1     135.121 123.855 121.590  1.00  0.00    -0.302 NA
ATOM      4  C   UNL     1     135.961 123.309 122.661  1.00  0.00    +0.105 C 
BRANCH   3   5
ATOM      5  C   UNL     1     135.905 124.047 120.356  1.00  0.00    +0.119 C 
BRANCH   5   6
ATOM      6  C   UNL     1     135.441 123.175 119.207  1.00  0.00    -0.034 A 
ATOM      7  C   UNL     1     135.489 121.778 119.303  1.00  0.00    +0.005 A 
ATOM      8  C   UNL     1     134.977 123.758 118.017  1.00  0.00    +0.005 A 
ATOM      9  C   UNL     1     135.074 120.980 118.234  1.00  0.00    +0.000 A 
ATOM     10  C   UNL     1     134.563 122.959 116.950  1.00  0.00    +0.000 A 
ATOM     11  C   UNL     1     134.611 121.571 117.059  1.00  0.00    +0.000 A 
ENDBRANCH   5   6
ENDBRANCH   3   5
ENDBRANCH   2   3
ENDBRANCH   1   2
BRANCH   1  12
ATOM     12  C   UNL     1     132.301 124.931 123.291  1.00  0.00    -0.046 A 
ATOM     13  C   UNL     1     132.235 123.660 123.876  1.00  0.00    +0.004 A 
ATOM     14  C   UNL     1     131.734 126.019 123.971  1.00  0.00    +0.019 A 
ATOM     15  C   UNL     1     131.623 123.477 125.116  1.00  0.00    +0.001 A 
ATOM     16  C   UNL     1     131.117 125.844 125.219  1.00  0.00    +0.060 A 
ATOM     17  C   UNL     1     131.065 124.567 125.789  1.00  0.00    +0.016 A 
BRANCH  16  18
ATOM     18  C   UNL     1     130.535 127.041 125.887  1.00  0.00    +0.337 C 
ATOM     19  O   UNL     1     129.923 127.915 125.292  1.00  0.00    -0.246 OA
BRANCH  18  20
ATOM     20  O   UNL     1     130.782 127.014 127.221  1.00  0.00    -0.465 OA
ATOM     21  C   UNL     1     131.565 128.114 127.686  1.00  0.00    +0.282 C 
ENDBRANCH  18  20
ENDBRANCH  16  18
ENDBRANCH   1  12
TORSDOF 7
ENDMDL
MODEL 17
REMARK VINA RESULT:    -6.069      3.763      6.638
REMARK INTER + INTRA:         -11.050
REMARK INTER:                 -10.452
REMARK INTRA:                  -0.598
REMARK UNBOUND:                -2.497
REMARK SMILES COC(=O)c1cccc(CCN(C)Cc2ccccc2)c1
REMARK SMILES IDX 10 1 11 2 12 3 13 4 14 5 15 6 16 7 20 8 17 9 19 10 18 11
REMARK SMILES IDX 9 12 8 13 21 14 7 15 5 16 6 17 3 18 4 19 2 20 1 21
REMARK H PARENT
REMARK INDEX MAP 4 1 3 2 2 3 1 4 15 5 16 6 17 7 21 8 18 9 20 10 19 11 5 12
REMARK INDEX MAP 6 13 10 14 7 15 9 16 8 17 11 18 12 19 13 20 14 21
ROOT
ATOM      1  C   UNL     1     134.116 125.538 124.901  1.00  0.00    +0.051 C 
ENDROOT
BRANCH   1   2
ATOM      2  C   UNL     1     135.277 124.617 124.475  1.00  0.00    +0.089 C 
BRANCH   2   3
ATOM      3  N   UNL     1     136.454 125.330 123.935  1.00  0.00    -0.302 NA
ATOM      4  C   UNL     1     137.165 126.062 124.988  1.00  0.00    +0.105 C 
BRANCH   3   5
ATOM      5  C   UNL     1     136.040 126.242 122.852  1.00  0.00    +0.119 C 
BRANCH   5   6
ATOM      6  C   UNL     1     135.649 125.522 121.577  1.00  0.00    -0.034 A 
ATOM      7  C   UNL     1     134.535 125.935 120.834  1.00  0.00    +0.005 A 
ATOM      8  C   UNL     1     136.385 124.411 121.136  1.00  0.00    +0.005 A 
ATOM      9  C   UNL     1     134.170 125.256 119.669  1.00  0.00    +0.000 A 
ATOM     10  C   UNL     1     136.019 123.734 119.972  1.00  0.00    +0.000 A 
ATOM     11  C   UNL     1     134.913 124.157 119.239  1.00  0.00    +0.000 A 
ENDBRANCH   5   6
ENDBRANCH   3   5
ENDBRANCH   2   3
ENDBRANCH   1   2
BRANCH   1  12
ATOM     12  C   UNL     1     132.989 124.805 125.594  1.00  0.00    -0.046 A 
ATOM     13  C   UNL     1     132.950 123.404 125.604  1.00  0.00    +0.004 A 
ATOM     14  C   UNL     1     131.956 125.517 126.219  1.00  0.00    +0.019 A 
ATOM     15  C   UNL     1     131.903 122.727 126.231  1.00  0.00    +0.001 A 
ATOM     16  C   UNL     1     130.900 124.843 126.852  1.00  0.00    +0.060 A 
ATOM     17  C   UNL     1     130.880 123.443 126.856  1.00  0.00    +0.016 A 
BRANCH  16  18
ATOM     18  C   UNL     1     129.834 125.658 127.497  1.00  0.00    +0.337 C 
ATOM     19  O   UNL     1     129.856 126.879 127.547  1.00  0.00    -0.246 OA
BRANCH  18  20
ATOM     20  O   UNL     1     128.862 124.861 128.008  1.00  0.00    -0.465 OA
ATOM     21  C   UNL     1     128.000 125.521 128.935  1.00  0.00    +0.282 C 
ENDBRANCH  18  20
ENDBRANCH  16  18
ENDBRANCH   1  12
TORSDOF 7
ENDMDL
MODEL 18
REMARK VINA RESULT:    -5.980      4.152      7.129
REMARK INTER + INTRA:         -10.925
REMARK INTER:                 -10.255
REMARK INTRA:                  -0.669
REMARK UNBOUND:                -2.497
REMARK SMILES COC(=O)c1cccc(CCN(C)Cc2ccccc2)c1
REMARK SMILES IDX 10 1 11 2 12 3 13 4 14 5 15 6 16 7 20 8 17 9 19 10 18 11
REMARK SMILES IDX 9 12 8 13 21 14 7 15 5 16 6 17 3 18 4 19 2 20 1 21
REMARK H PARENT
REMARK INDEX MAP 4 1 3 2 2 3 1 4 15 5 16 6 17 7 21 8 18 9 20 10 19 11 5 12
REMARK INDEX MAP 6 13 10 14 7 15 9 16 8 17 11 18 12 19 13 20 14 21
ROOT
ATOM      1  C   UNL     1     132.061 126.308 123.707  1.00  0.00    +0.051 C 
ENDROOT
BRANCH   1   2
ATOM      2  C   UNL     1     131.892 124.855 123.220  1.00  0.00    +0.089 C 
BRANCH   2   3
ATOM      3  N   UNL     1     132.465 123.837 124.125  1.00  0.00    -0.302 NA
ATOM      4  C   UNL     1     131.441 123.273 125.010  1.00  0.00    +0.105 C 
BRANCH   3   5
ATOM      5  C   UNL     1     133.570 124.422 124.909  1.00  0.00    +0.119 C 
BRANCH   5   6
ATOM      6  C   UNL     1     134.533 123.386 125.453  1.00  0.00    -0.034 A 
ATOM      7  C   UNL     1     135.398 122.692 124.595  1.00  0.00    +0.005 A 
ATOM      8  C   UNL     1     134.555 123.090 126.825  1.00  0.00    +0.005 A 
ATOM      9  C   UNL     1     136.271 121.726 125.102  1.00  0.00    +0.000 A 
ATOM     10  C   UNL     1     135.429 122.125 127.329  1.00  0.00    +0.000 A 
ATOM     11  C   UNL     1     136.286 121.445 126.467  1.00  0.00    +0.000 A 
ENDBRANCH   5   6
ENDBRANCH   3   5
ENDBRANCH   2   3
ENDBRANCH   1   2
BRANCH   1  12
ATOM     12  C   UNL     1     130.883 126.817 124.505  1.00  0.00    -0.046 A 
ATOM     13  C   UNL     1     129.644 127.036 123.888  1.00  0.00    +0.004 A 
ATOM     14  C   UNL     1     131.018 127.098 125.872  1.00  0.00    +0.019 A 
ATOM     15  C   UNL     1     128.560 127.519 124.621  1.00  0.00    +0.001 A 
ATOM     16  C   UNL     1     129.931 127.584 126.616  1.00  0.00    +0.060 A 
ATOM     17  C   UNL     1     128.700 127.791 125.983  1.00  0.00    +0.016 A 
BRANCH  16  18
ATOM     18  C   UNL     1     130.141 127.862 128.064  1.00  0.00    +0.337 C 
ATOM     19  O   UNL     1     129.622 127.212 128.958  1.00  0.00    -0.246 OA
BRANCH  18  20
ATOM     20  O   UNL     1     130.974 128.920 128.234  1.00  0.00    -0.465 OA
ATOM     21  C   UNL     1     131.977 128.713 129.229  1.00  0.00    +0.282 C 
ENDBRANCH  18  20
ENDBRANCH  16  18
ENDBRANCH   1  12
TORSDOF 7
ENDMDL
MODEL 19
REMARK VINA RESULT:    -5.905      4.700      7.414
REMARK INTER + INTRA:         -10.818
REMARK INTER:                 -10.171
REMARK INTRA:                  -0.648
REMARK UNBOUND:                -2.497
REMARK SMILES COC(=O)c1cccc(CCN(C)Cc2ccccc2)c1
REMARK SMILES IDX 10 1 11 2 12 3 13 4 14 5 15 6 16 7 20 8 17 9 19 10 18 11
REMARK SMILES IDX 9 12 8 13 21 14 7 15 5 16 6 17 3 18 4 19 2 20 1 21
REMARK H PARENT
REMARK INDEX MAP 4 1 3 2 2 3 1 4 15 5 16 6 17 7 21 8 18 9 20 10 19 11 5 12
REMARK INDEX MAP 6 13 10 14 7 15 9 16 8 17 11 18 12 19 13 20 14 21
ROOT
ATOM      1  C   UNL     1     131.742 126.122 125.055  1.00  0.00    +0.051 C 
ENDROOT
BRANCH   1   2
ATOM      2  C   UNL     1     132.011 124.635 124.749  1.00  0.00    +0.089 C 
BRANCH   2   3
ATOM      3  N   UNL     1     133.442 124.278 124.669  1.00  0.00    -0.302 NA
ATOM      4  C   UNL     1     134.008 124.037 126.000  1.00  0.00    +0.105 C 
BRANCH   3   5
ATOM      5  C   UNL     1     134.190 125.339 123.966  1.00  0.00    +0.119 C 
BRANCH   5   6
ATOM      6  C   UNL     1     134.464 125.017 122.511  1.00  0.00    -0.034 A 
ATOM      7  C   UNL     1     134.050 125.889 121.495  1.00  0.00    +0.005 A 
ATOM      8  C   UNL     1     135.116 123.825 122.160  1.00  0.00    +0.005 A 
ATOM      9  C   UNL     1     134.291 125.577 120.155  1.00  0.00    +0.000 A 
ATOM     10  C   UNL     1     135.356 123.516 120.820  1.00  0.00    +0.000 A 
ATOM     11  C   UNL     1     134.944 124.392 119.819  1.00  0.00    +0.000 A 
ENDBRANCH   5   6
ENDBRANCH   3   5
ENDBRANCH   2   3
ENDBRANCH   1   2
BRANCH   1  12
ATOM     12  C   UNL     1     130.933 126.342 126.314  1.00  0.00    -0.046 A 
ATOM     13  C   UNL     1     131.112 127.499 127.083  1.00  0.00    +0.004 A 
ATOM     14  C   UNL     1     130.006 125.380 126.741  1.00  0.00    +0.019 A 
ATOM     15  C   UNL     1     130.376 127.696 128.253  1.00  0.00    +0.001 A 
ATOM     16  C   UNL     1     129.262 125.572 127.916  1.00  0.00    +0.060 A 
ATOM     17  C   UNL     1     129.451 126.737 128.669  1.00  0.00    +0.016 A 
BRANCH  16  18
ATOM     18  C   UNL     1     128.294 124.512 128.313  1.00  0.00    +0.337 C 
ATOM     19  O   UNL     1     128.424 123.334 128.017  1.00  0.00    -0.246 OA
BRANCH  18  20
ATOM     20  O   UNL     1     127.274 125.040 129.035  1.00  0.00    -0.465 OA
ATOM     21  C   UNL     1     126.935 124.283 130.197  1.00  0.00    +0.282 C 
ENDBRANCH  18  20
ENDBRANCH  16  18
ENDBRANCH   1  12
TORSDOF 7
ENDMDL
MODEL 20
REMARK VINA RESULT:    -5.734      2.338      3.512
REMARK INTER + INTRA:         -10.578
REMARK INTER:                  -9.895
REMARK INTRA:                  -0.683
REMARK UNBOUND:                -2.497
REMARK SMILES COC(=O)c1cccc(CCN(C)Cc2ccccc2)c1
REMARK SMILES IDX 10 1 11 2 12 3 13 4 14 5 15 6 16 7 20 8 17 9 19 10 18 11
REMARK SMILES IDX 9 12 8 13 21 14 7 15 5 16 6 17 3 18 4 19 2 20 1 21
REMARK H PARENT
REMARK INDEX MAP 4 1 3 2 2 3 1 4 15 5 16 6 17 7 21 8 18 9 20 10 19 11 5 12
REMARK INDEX MAP 6 13 10 14 7 15 9 16 8 17 11 18 12 19 13 20 14 21
ROOT
ATOM      1  C   UNL     1     133.127 125.969 122.672  1.00  0.00    +0.051 C 
ENDROOT
BRANCH   1   2
ATOM      2  C   UNL     1     133.547 126.075 124.152  1.00  0.00    +0.089 C 
BRANCH   2   3
ATOM      3  N   UNL     1     132.711 125.288 125.081  1.00  0.00    -0.302 NA
ATOM      4  C   UNL     1     133.142 123.887 125.130  1.00  0.00    +0.105 C 
BRANCH   3   5
ATOM      5  C   UNL     1     131.292 125.385 124.692  1.00  0.00    +0.119 C 
BRANCH   5   6
ATOM      6  C   UNL     1     130.551 126.502 125.399  1.00  0.00    -0.034 A 
ATOM      7  C   UNL     1     130.038 127.589 124.679  1.00  0.00    +0.005 A 
ATOM      8  C   UNL     1     130.390 126.474 126.793  1.00  0.00    +0.005 A 
ATOM      9  C   UNL     1     129.370 128.624 125.340  1.00  0.00    +0.000 A 
ATOM     10  C   UNL     1     129.723 127.508 127.452  1.00  0.00    +0.000 A 
ATOM     11  C   UNL     1     129.213 128.582 126.725  1.00  0.00    +0.000 A 
ENDBRANCH   5   6
ENDBRANCH   3   5
ENDBRANCH   2   3
ENDBRANCH   1   2
BRANCH   1  12
ATOM     12  C   UNL     1     134.178 125.330 121.792  1.00  0.00    -0.046 A 
ATOM     13  C   UNL     1     135.422 124.960 122.321  1.00  0.00    +0.004 A 
ATOM     14  C   UNL     1     133.931 125.117 120.429  1.00  0.00    +0.019 A 
ATOM     15  C   UNL     1     136.397 124.383 121.507  1.00  0.00    +0.001 A 
ATOM     16  C   UNL     1     134.907 124.537 119.604  1.00  0.00    +0.060 A 
ATOM     17  C   UNL     1     136.142 124.169 120.151  1.00  0.00    +0.016 A 
BRANCH  16  18
ATOM     18  C   UNL     1     134.580 124.338 118.165  1.00  0.00    +0.337 C 
ATOM     19  O   UNL     1     133.790 125.037 117.549  1.00  0.00    -0.246 OA
BRANCH  18  20
ATOM     20  O   UNL     1     135.274 123.289 117.655  1.00  0.00    -0.465 OA
ATOM     21  C   UNL     1     134.668 122.698 116.505  1.00  0.00    +0.282 C 
ENDBRANCH  18  20
ENDBRANCH  16  18
ENDBRANCH   1  12
TORSDOF 7
ENDMDL
