MODEL 1
REMARK VINA RESULT:    -7.601      0.000      0.000
REMARK INTER + INTRA:         -12.810
REMARK INTER:                 -10.711
REMARK INTRA:                  -2.099
REMARK UNBOUND:                -2.099
REMARK SMILES COC(=O)c1cccc(CC[N@@H+](C)Cc2ccccc2)c1
REMARK SMILES IDX 10 1 11 2 12 3 13 4 14 6 15 7 16 8 20 9 17 10 19 11 18 12
REMARK SMILES IDX 9 13 8 14 21 15 7 16 5 17 6 18 3 19 4 20 2 21 1 22
REMARK H PARENT 12 5
REMARK INDEX MAP 4 1 3 2 2 3 1 4 25 5 15 6 16 7 17 8 21 9 18 10 20 11 19 12
REMARK INDEX MAP 5 13 6 14 10 15 7 16 9 17 8 18 11 19 12 20 13 21 14 22
ROOT
ATOM      1  C   UNL     1     136.270 122.047 125.014  1.00  0.00    +0.097 C 
ENDROOT
BRANCH   1   2
ATOM      2  C   UNL     1     134.972 121.229 125.109  1.00  0.00    +0.267 C 
BRANCH   2   3
ATOM      3  N   UNL     1     134.324 121.339 126.478  1.00  0.00    -0.333 N 
ATOM      4  C   UNL     1     135.156 122.113 127.464  1.00  0.00    +0.333 C 
ATOM      5  H   UNL     1     134.232 120.386 126.854  1.00  0.00    +0.348 HD
BRANCH   3   6
ATOM      6  C   UNL     1     132.904 121.864 126.387  1.00  0.00    +0.298 C 
BRANCH   6   7
ATOM      7  C   UNL     1     132.794 123.116 125.561  1.00  0.00    +0.006 A 
ATOM      8  C   UNL     1     133.101 124.367 126.122  1.00  0.00    +0.009 A 
ATOM      9  C   UNL     1     132.403 123.053 124.215  1.00  0.00    +0.009 A 
ATOM     10  C   UNL     1     133.025 125.526 125.349  1.00  0.00    +0.001 A 
ATOM     11  C   UNL     1     132.329 124.215 123.446  1.00  0.00    +0.001 A 
ATOM     12  C   UNL     1     132.642 125.449 124.013  1.00  0.00    +0.000 A 
ENDBRANCH   6   7
ENDBRANCH   3   6
ENDBRANCH   2   3
ENDBRANCH   1   2
BRANCH   1  13
ATOM     13  C   UNL     1     136.167 123.210 124.054  1.00  0.00    -0.042 A 
ATOM     14  C   UNL     1     136.418 124.516 124.494  1.00  0.00    +0.004 A 
ATOM     15  C   UNL     1     135.841 122.995 122.704  1.00  0.00    +0.019 A 
ATOM     16  C   UNL     1     136.367 125.586 123.601  1.00  0.00    +0.001 A 
ATOM     17  C   UNL     1     135.788 124.069 121.801  1.00  0.00    +0.060 A 
ATOM     18  C   UNL     1     136.058 125.364 122.259  1.00  0.00    +0.016 A 
BRANCH  17  19
ATOM     19  C   UNL     1     135.462 123.888 120.360  1.00  0.00    +0.337 C 
ATOM     20  O   UNL     1     135.679 122.856 119.747  1.00  0.00    -0.246 OA
BRANCH  19  21
ATOM     21  O   UNL     1     134.883 125.007 119.858  1.00  0.00    -0.465 OA
ATOM     22  C   UNL     1     134.388 124.851 118.525  1.00  0.00    +0.282 C 
ENDBRANCH  19  21
ENDBRANCH  17  19
ENDBRANCH   1  13
TORSDOF 7
ENDMDL
MODEL 2
REMARK VINA RESULT:    -7.513      1.798      2.907
REMARK INTER + INTRA:         -12.687
REMARK INTER:                 -10.114
REMARK INTRA:                  -2.574
REMARK UNBOUND:                -2.099
REMARK SMILES COC(=O)c1cccc(CC[N@@H+](C)Cc2ccccc2)c1
REMARK SMILES IDX 10 1 11 2 12 3 13 4 14 6 15 7 16 8 20 9 17 10 19 11 18 12
REMARK SMILES IDX 9 13 8 14 21 15 7 16 5 17 6 18 3 19 4 20 2 21 1 22
REMARK H PARENT 12 5
REMARK INDEX MAP 4 1 3 2 2 3 1 4 25 5 15 6 16 7 17 8 21 9 18 10 20 11 19 12
REMARK INDEX MAP 5 13 6 14 10 15 7 16 9 17 8 18 11 19 12 20 13 21 14 22
ROOT
ATOM      1  C   UNL     1     136.191 121.924 125.669  1.00  0.00    +0.097 C 
ENDROOT
BRANCH   1   2
ATOM      2  C   UNL     1     135.180 122.279 126.771  1.00  0.00    +0.267 C 
BRANCH   2   3
ATOM      3  N   UNL     1     133.744 122.187 126.283  1.00  0.00    -0.333 N 
ATOM      4  C   UNL     1     133.003 121.007 126.850  1.00  0.00    +0.333 C 
ATOM      5  H   UNL     1     133.772 122.056 125.264  1.00  0.00    +0.348 HD
BRANCH   3   6
ATOM      6  C   UNL     1     132.995 123.490 126.492  1.00  0.00    +0.298 C 
BRANCH   6   7
ATOM      7  C   UNL     1     132.705 124.211 125.204  1.00  0.00    +0.006 A 
ATOM      8  C   UNL     1     132.930 125.594 125.097  1.00  0.00    +0.009 A 
ATOM      9  C   UNL     1     132.223 123.513 124.086  1.00  0.00    +0.009 A 
ATOM     10  C   UNL     1     132.685 126.259 123.895  1.00  0.00    +0.001 A 
ATOM     11  C   UNL     1     131.980 124.183 122.886  1.00  0.00    +0.001 A 
ATOM     12  C   UNL     1     132.214 125.553 122.792  1.00  0.00    +0.000 A 
ENDBRANCH   6   7
ENDBRANCH   3   6
ENDBRANCH   2   3
ENDBRANCH   1   2
BRANCH   1  13
ATOM     13  C   UNL     1     136.024 122.761 124.421  1.00  0.00    -0.042 A 
ATOM     14  C   UNL     1     135.582 122.174 123.229  1.00  0.00    +0.004 A 
ATOM     15  C   UNL     1     136.290 124.141 124.446  1.00  0.00    +0.019 A 
ATOM     16  C   UNL     1     135.386 122.952 122.087  1.00  0.00    +0.001 A 
ATOM     17  C   UNL     1     136.094 124.928 123.300  1.00  0.00    +0.060 A 
ATOM     18  C   UNL     1     135.636 124.324 122.124  1.00  0.00    +0.016 A 
BRANCH  17  19
ATOM     19  C   UNL     1     136.347 126.395 123.284  1.00  0.00    +0.337 C 
ATOM     20  O   UNL     1     135.892 127.145 122.436  1.00  0.00    -0.246 OA
BRANCH  19  21
ATOM     21  O   UNL     1     137.118 126.757 124.339  1.00  0.00    -0.465 OA
ATOM     22  C   UNL     1     136.458 127.626 125.264  1.00  0.00    +0.282 C 
ENDBRANCH  19  21
ENDBRANCH  17  19
ENDBRANCH   1  13
TORSDOF 7
ENDMDL
MODEL 3
REMARK VINA RESULT:    -7.504      1.942      3.943
REMARK INTER + INTRA:         -12.674
REMARK INTER:                 -11.750
REMARK INTRA:                  -0.923
REMARK UNBOUND:                -2.099
REMARK SMILES COC(=O)c1cccc(CC[N@@H+](C)Cc2ccccc2)c1
REMARK SMILES IDX 10 1 11 2 12 3 13 4 14 6 15 7 16 8 20 9 17 10 19 11 18 12
REMARK SMILES IDX 9 13 8 14 21 15 7 16 5 17 6 18 3 19 4 20 2 21 1 22
REMARK H PARENT 12 5
REMARK INDEX MAP 4 1 3 2 2 3 1 4 25 5 15 6 16 7 17 8 21 9 18 10 20 11 19 12
REMARK INDEX MAP 5 13 6 14 10 15 7 16 9 17 8 18 11 19 12 20 13 21 14 22
ROOT
ATOM      1  C   UNL     1     134.029 126.496 121.932  1.00  0.00    +0.097 C 
ENDROOT
BRANCH   1   2
ATOM      2  C   UNL     1     132.789 125.973 122.674  1.00  0.00    +0.267 C 
BRANCH   2   3
ATOM      3  N   UNL     1     133.153 125.255 123.963  1.00  0.00    -0.333 N 
ATOM      4  C   UNL     1     132.690 125.985 125.194  1.00  0.00    +0.333 C 
ATOM      5  H   UNL     1     134.178 125.212 124.013  1.00  0.00    +0.348 HD
BRANCH   3   6
ATOM      6  C   UNL     1     132.698 123.808 123.947  1.00  0.00    +0.298 C 
BRANCH   6   7
ATOM      7  C   UNL     1     133.657 122.886 124.649  1.00  0.00    +0.006 A 
ATOM      8  C   UNL     1     133.295 122.272 125.860  1.00  0.00    +0.009 A 
ATOM      9  C   UNL     1     134.918 122.610 124.098  1.00  0.00    +0.009 A 
ATOM     10  C   UNL     1     134.174 121.396 126.499  1.00  0.00    +0.001 A 
ATOM     11  C   UNL     1     135.793 121.733 124.741  1.00  0.00    +0.001 A 
ATOM     12  C   UNL     1     135.419 121.126 125.938  1.00  0.00    +0.000 A 
ENDBRANCH   6   7
ENDBRANCH   3   6
ENDBRANCH   2   3
ENDBRANCH   1   2
BRANCH   1  13
ATOM     13  C   UNL     1     134.719 125.433 121.108  1.00  0.00    -0.042 A 
ATOM     14  C   UNL     1     135.824 124.743 121.623  1.00  0.00    +0.004 A 
ATOM     15  C   UNL     1     134.248 125.109 119.824  1.00  0.00    +0.019 A 
ATOM     16  C   UNL     1     136.435 123.732 120.881  1.00  0.00    +0.001 A 
ATOM     17  C   UNL     1     134.860 124.091 119.074  1.00  0.00    +0.060 A 
ATOM     18  C   UNL     1     135.952 123.403 119.614  1.00  0.00    +0.016 A 
BRANCH  17  19
ATOM     19  C   UNL     1     134.386 123.702 117.717  1.00  0.00    +0.337 C 
ATOM     20  O   UNL     1     133.654 124.400 117.036  1.00  0.00    -0.246 OA
BRANCH  19  21
ATOM     21  O   UNL     1     134.900 122.498 117.361  1.00  0.00    -0.465 OA
ATOM     22  C   UNL     1     135.101 122.352 115.952  1.00  0.00    +0.282 C 
ENDBRANCH  19  21
ENDBRANCH  17  19
ENDBRANCH   1  13
TORSDOF 7
ENDMDL
MODEL 4
REMARK VINA RESULT:    -7.483      3.195      5.981
REMARK INTER + INTRA:         -12.645
REMARK INTER:                 -10.467
REMARK INTRA:                  -2.178
REMARK UNBOUND:                -2.099
REMARK SMILES COC(=O)c1cccc(CC[N@@H+](C)Cc2ccccc2)c1
REMARK SMILES IDX 10 1 11 2 12 3 13 4 14 6 15 7 16 8 20 9 17 10 19 11 18 12
REMARK SMILES IDX 9 13 8 14 21 15 7 16 5 17 6 18 3 19 4 20 2 21 1 22
REMARK H PARENT 12 5
REMARK INDEX MAP 4 1 3 2 2 3 1 4 25 5 15 6 16 7 17 8 21 9 18 10 20 11 19 12
REMARK INDEX MAP 5 13 6 14 10 15 7 16 9 17 8 18 11 19 12 20 13 21 14 22
ROOT
ATOM      1  C   UNL     1     132.704 124.682 122.205  1.00  0.00    +0.097 C 
ENDROOT
BRANCH   1   2
ATOM      2  C   UNL     1     134.211 124.965 122.098  1.00  0.00    +0.267 C 
BRANCH   2   3
ATOM      3  N   UNL     1     135.036 123.689 122.116  1.00  0.00    -0.333 N 
ATOM      4  C   UNL     1     135.622 123.348 120.773  1.00  0.00    +0.333 C 
ATOM      5  H   UNL     1     134.406 122.917 122.367  1.00  0.00    +0.348 HD
BRANCH   3   6
ATOM      6  C   UNL     1     136.085 123.713 123.211  1.00  0.00    +0.298 C 
BRANCH   6   7
ATOM      7  C   UNL     1     135.622 123.052 124.480  1.00  0.00    +0.006 A 
ATOM      8  C   UNL     1     135.447 123.807 125.652  1.00  0.00    +0.009 A 
ATOM      9  C   UNL     1     135.341 121.678 124.509  1.00  0.00    +0.009 A 
ATOM     10  C   UNL     1     134.992 123.199 126.823  1.00  0.00    +0.001 A 
ATOM     11  C   UNL     1     134.886 121.074 125.683  1.00  0.00    +0.001 A 
ATOM     12  C   UNL     1     134.711 121.836 126.836  1.00  0.00    +0.000 A 
ENDBRANCH   6   7
ENDBRANCH   3   6
ENDBRANCH   2   3
ENDBRANCH   1   2
BRANCH   1  13
ATOM     13  C   UNL     1     132.225 124.558 123.633  1.00  0.00    -0.042 A 
ATOM     14  C   UNL     1     131.959 123.298 124.184  1.00  0.00    +0.004 A 
ATOM     15  C   UNL     1     132.061 125.702 124.433  1.00  0.00    +0.019 A 
ATOM     16  C   UNL     1     131.558 123.178 125.515  1.00  0.00    +0.001 A 
ATOM     17  C   UNL     1     131.658 125.586 125.773  1.00  0.00    +0.060 A 
ATOM     18  C   UNL     1     131.413 124.316 126.308  1.00  0.00    +0.016 A 
BRANCH  17  19
ATOM     19  C   UNL     1     131.486 126.768 126.663  1.00  0.00    +0.337 C 
ATOM     20  O   UNL     1     132.112 127.806 126.528  1.00  0.00    -0.246 OA
BRANCH  19  21
ATOM     21  O   UNL     1     130.539 126.523 127.602  1.00  0.00    -0.465 OA
ATOM     22  C   UNL     1     130.137 127.687 128.330  1.00  0.00    +0.282 C 
ENDBRANCH  19  21
ENDBRANCH  17  19
ENDBRANCH   1  13
TORSDOF 7
ENDMDL
MODEL 5
REMARK VINA RESULT:    -7.463      3.049      5.972
REMARK INTER + INTRA:         -12.616
REMARK INTER:                 -10.203
REMARK INTRA:                  -2.413
REMARK UNBOUND:                -2.099
REMARK SMILES COC(=O)c1cccc(CC[N@@H+](C)Cc2ccccc2)c1
REMARK SMILES IDX 10 1 11 2 12 3 13 4 14 6 15 7 16 8 20 9 17 10 19 11 18 12
REMARK SMILES IDX 9 13 8 14 21 15 7 16 5 17 6 18 3 19 4 20 2 21 1 22
REMARK H PARENT 12 5
REMARK INDEX MAP 4 1 3 2 2 3 1 4 25 5 15 6 16 7 17 8 21 9 18 10 20 11 19 12
REMARK INDEX MAP 5 13 6 14 10 15 7 16 9 17 8 18 11 19 12 20 13 21 14 22
ROOT
ATOM      1  C   UNL     1     132.460 124.822 121.818  1.00  0.00    +0.097 C 
ENDROOT
BRANCH   1   2
ATOM      2  C   UNL     1     133.563 125.673 121.167  1.00  0.00    +0.267 C 
BRANCH   2   3
ATOM      3  N   UNL     1     134.558 124.827 120.392  1.00  0.00    -0.333 N 
ATOM      4  C   UNL     1     134.582 125.144 118.922  1.00  0.00    +0.333 C 
ATOM      5  H   UNL     1     134.262 123.846 120.478  1.00  0.00    +0.348 HD
BRANCH   3   6
ATOM      6  C   UNL     1     135.941 124.876 121.013  1.00  0.00    +0.298 C 
BRANCH   6   7
ATOM      7  C   UNL     1     135.970 124.343 122.420  1.00  0.00    +0.006 A 
ATOM      8  C   UNL     1     135.714 122.984 122.670  1.00  0.00    +0.009 A 
ATOM      9  C   UNL     1     136.272 125.188 123.498  1.00  0.00    +0.009 A 
ATOM     10  C   UNL     1     135.767 122.484 123.972  1.00  0.00    +0.001 A 
ATOM     11  C   UNL     1     136.324 124.682 124.798  1.00  0.00    +0.001 A 
ATOM     12  C   UNL     1     136.074 123.332 125.033  1.00  0.00    +0.000 A 
ENDBRANCH   6   7
ENDBRANCH   3   6
ENDBRANCH   2   3
ENDBRANCH   1   2
BRANCH   1  13
ATOM     13  C   UNL     1     132.500 124.857 123.329  1.00  0.00    -0.042 A 
ATOM     14  C   UNL     1     132.853 126.034 124.001  1.00  0.00    +0.004 A 
ATOM     15  C   UNL     1     132.163 123.717 124.078  1.00  0.00    +0.019 A 
ATOM     16  C   UNL     1     132.848 126.081 125.395  1.00  0.00    +0.001 A 
ATOM     17  C   UNL     1     132.157 123.760 125.482  1.00  0.00    +0.060 A 
ATOM     18  C   UNL     1     132.497 124.951 126.133  1.00  0.00    +0.016 A 
BRANCH  17  19
ATOM     19  C   UNL     1     131.792 122.582 126.317  1.00  0.00    +0.337 C 
ATOM     20  O   UNL     1     130.953 122.621 127.201  1.00  0.00    -0.246 OA
BRANCH  19  21
ATOM     21  O   UNL     1     132.500 121.490 125.935  1.00  0.00    -0.465 OA
ATOM     22  C   UNL     1     133.608 121.195 126.791  1.00  0.00    +0.282 C 
ENDBRANCH  19  21
ENDBRANCH  17  19
ENDBRANCH   1  13
TORSDOF 7
ENDMDL
MODEL 6
REMARK VINA RESULT:    -7.460      1.810      3.727
REMARK INTER + INTRA:         -12.612
REMARK INTER:                 -11.250
REMARK INTRA:                  -1.362
REMARK UNBOUND:                -2.099
REMARK SMILES COC(=O)c1cccc(CC[N@@H+](C)Cc2ccccc2)c1
REMARK SMILES IDX 10 1 11 2 12 3 13 4 14 6 15 7 16 8 20 9 17 10 19 11 18 12
REMARK SMILES IDX 9 13 8 14 21 15 7 16 5 17 6 18 3 19 4 20 2 21 1 22
REMARK H PARENT 12 5
REMARK INDEX MAP 4 1 3 2 2 3 1 4 25 5 15 6 16 7 17 8 21 9 18 10 20 11 19 12
REMARK INDEX MAP 5 13 6 14 10 15 7 16 9 17 8 18 11 19 12 20 13 21 14 22
ROOT
ATOM      1  C   UNL     1     133.008 125.881 122.948  1.00  0.00    +0.097 C 
ENDROOT
BRANCH   1   2
ATOM      2  C   UNL     1     132.214 125.125 124.025  1.00  0.00    +0.267 C 
BRANCH   2   3
ATOM      3  N   UNL     1     132.671 125.481 125.430  1.00  0.00    -0.333 N 
ATOM      4  C   UNL     1     131.964 126.684 125.992  1.00  0.00    +0.333 C 
ATOM      5  H   UNL     1     133.669 125.723 125.377  1.00  0.00    +0.348 HD
BRANCH   3   6
ATOM      6  C   UNL     1     132.604 124.287 126.362  1.00  0.00    +0.298 C 
BRANCH   6   7
ATOM      7  C   UNL     1     133.685 123.276 126.096  1.00  0.00    +0.006 A 
ATOM      8  C   UNL     1     133.354 121.972 125.690  1.00  0.00    +0.009 A 
ATOM      9  C   UNL     1     135.038 123.622 126.232  1.00  0.00    +0.009 A 
ATOM     10  C   UNL     1     134.357 121.041 125.419  1.00  0.00    +0.001 A 
ATOM     11  C   UNL     1     136.037 122.687 125.959  1.00  0.00    +0.001 A 
ATOM     12  C   UNL     1     135.696 121.399 125.551  1.00  0.00    +0.000 A 
ENDBRANCH   6   7
ENDBRANCH   3   6
ENDBRANCH   2   3
ENDBRANCH   1   2
BRANCH   1  13
ATOM     13  C   UNL     1     133.850 124.969 122.085  1.00  0.00    -0.042 A 
ATOM     14  C   UNL     1     134.584 123.925 122.663  1.00  0.00    +0.004 A 
ATOM     15  C   UNL     1     133.892 125.144 120.691  1.00  0.00    +0.019 A 
ATOM     16  C   UNL     1     135.327 123.056 121.864  1.00  0.00    +0.001 A 
ATOM     17  C   UNL     1     134.640 124.272 119.883  1.00  0.00    +0.060 A 
ATOM     18  C   UNL     1     135.351 123.225 120.480  1.00  0.00    +0.016 A 
BRANCH  17  19
ATOM     19  C   UNL     1     134.701 124.408 118.401  1.00  0.00    +0.337 C 
ATOM     20  O   UNL     1     134.272 125.377 117.798  1.00  0.00    -0.246 OA
BRANCH  19  21
ATOM     21  O   UNL     1     135.310 123.329 117.849  1.00  0.00    -0.465 OA
ATOM     22  C   UNL     1     134.590 122.762 116.750  1.00  0.00    +0.282 C 
ENDBRANCH  19  21
ENDBRANCH  17  19
ENDBRANCH   1  13
TORSDOF 7
ENDMDL
MODEL 7
REMARK VINA RESULT:    -7.093      2.854      5.280
REMARK INTER + INTRA:         -12.095
REMARK INTER:                 -10.110
REMARK INTRA:                  -1.985
REMARK UNBOUND:                -2.099
REMARK SMILES COC(=O)c1cccc(CC[N@@H+](C)Cc2ccccc2)c1
REMARK SMILES IDX 10 1 11 2 12 3 13 4 14 6 15 7 16 8 20 9 17 10 19 11 18 12
REMARK SMILES IDX 9 13 8 14 21 15 7 16 5 17 6 18 3 19 4 20 2 21 1 22
REMARK H PARENT 12 5
REMARK INDEX MAP 4 1 3 2 2 3 1 4 25 5 15 6 16 7 17 8 21 9 18 10 20 11 19 12
REMARK INDEX MAP 5 13 6 14 10 15 7 16 9 17 8 18 11 19 12 20 13 21 14 22
ROOT
ATOM      1  C   UNL     1     132.517 122.030 126.403  1.00  0.00    +0.097 C 
ENDROOT
BRANCH   1   2
ATOM      2  C   UNL     1     133.857 121.349 126.083  1.00  0.00    +0.267 C 
BRANCH   2   3
ATOM      3  N   UNL     1     135.045 122.198 126.500  1.00  0.00    -0.333 N 
ATOM      4  C   UNL     1     135.520 121.901 127.896  1.00  0.00    +0.333 C 
ATOM      5  H   UNL     1     134.740 123.180 126.495  1.00  0.00    +0.348 HD
BRANCH   3   6
ATOM      6  C   UNL     1     136.169 122.130 125.484  1.00  0.00    +0.298 C 
BRANCH   6   7
ATOM      7  C   UNL     1     135.969 123.070 124.326  1.00  0.00    +0.006 A 
ATOM      8  C   UNL     1     136.046 124.460 124.518  1.00  0.00    +0.009 A 
ATOM      9  C   UNL     1     135.723 122.574 123.038  1.00  0.00    +0.009 A 
ATOM     10  C   UNL     1     135.886 125.331 123.439  1.00  0.00    +0.001 A 
ATOM     11  C   UNL     1     135.564 123.449 121.962  1.00  0.00    +0.001 A 
ATOM     12  C   UNL     1     135.649 124.825 122.164  1.00  0.00    +0.000 A 
ENDBRANCH   6   7
ENDBRANCH   3   6
ENDBRANCH   2   3
ENDBRANCH   1   2
BRANCH   1  13
ATOM     13  C   UNL     1     132.336 123.348 125.686  1.00  0.00    -0.042 A 
ATOM     14  C   UNL     1     132.397 123.409 124.288  1.00  0.00    +0.004 A 
ATOM     15  C   UNL     1     132.085 124.526 126.411  1.00  0.00    +0.019 A 
ATOM     16  C   UNL     1     132.188 124.617 123.622  1.00  0.00    +0.001 A 
ATOM     17  C   UNL     1     131.874 125.744 125.745  1.00  0.00    +0.060 A 
ATOM     18  C   UNL     1     131.923 125.779 124.347  1.00  0.00    +0.016 A 
BRANCH  17  19
ATOM     19  C   UNL     1     131.589 127.014 126.469  1.00  0.00    +0.337 C 
ATOM     20  O   UNL     1     132.281 128.014 126.369  1.00  0.00    -0.246 OA
BRANCH  19  21
ATOM     21  O   UNL     1     130.464 126.893 127.216  1.00  0.00    -0.465 OA
ATOM     22  C   UNL     1     130.396 127.814 128.309  1.00  0.00    +0.282 C 
ENDBRANCH  19  21
ENDBRANCH  17  19
ENDBRANCH   1  13
TORSDOF 7
ENDMDL
MODEL 8
REMARK VINA RESULT:    -6.870      2.790      4.171
REMARK INTER + INTRA:         -11.781
REMARK INTER:                 -11.358
REMARK INTRA:                  -0.422
REMARK UNBOUND:                -2.099
REMARK SMILES COC(=O)c1cccc(CC[N@@H+](C)Cc2ccccc2)c1
REMARK SMILES IDX 10 1 11 2 12 3 13 4 14 6 15 7 16 8 20 9 17 10 19 11 18 12
REMARK SMILES IDX 9 13 8 14 21 15 7 16 5 17 6 18 3 19 4 20 2 21 1 22
REMARK H PARENT 12 5
REMARK INDEX MAP 4 1 3 2 2 3 1 4 25 5 15 6 16 7 17 8 21 9 18 10 20 11 19 12
REMARK INDEX MAP 5 13 6 14 10 15 7 16 9 17 8 18 11 19 12 20 13 21 14 22
ROOT
ATOM      1  C   UNL     1     133.654 126.143 122.262  1.00  0.00    +0.097 C 
ENDROOT
BRANCH   1   2
ATOM      2  C   UNL     1     133.813 125.917 123.774  1.00  0.00    +0.267 C 
BRANCH   2   3
ATOM      3  N   UNL     1     132.565 126.312 124.546  1.00  0.00    -0.333 N 
ATOM      4  C   UNL     1     131.325 126.326 123.696  1.00  0.00    +0.333 C 
ATOM      5  H   UNL     1     132.703 127.273 124.884  1.00  0.00    +0.348 HD
BRANCH   3   6
ATOM      6  C   UNL     1     132.393 125.476 125.800  1.00  0.00    +0.298 C 
BRANCH   6   7
ATOM      7  C   UNL     1     131.353 126.029 126.735  1.00  0.00    +0.006 A 
ATOM      8  C   UNL     1     131.422 127.366 127.163  1.00  0.00    +0.009 A 
ATOM      9  C   UNL     1     130.290 125.228 127.178  1.00  0.00    +0.009 A 
ATOM     10  C   UNL     1     130.444 127.888 128.010  1.00  0.00    +0.001 A 
ATOM     11  C   UNL     1     129.314 125.755 128.025  1.00  0.00    +0.001 A 
ATOM     12  C   UNL     1     129.391 127.084 128.438  1.00  0.00    +0.000 A 
ENDBRANCH   6   7
ENDBRANCH   3   6
ENDBRANCH   2   3
ENDBRANCH   1   2
BRANCH   1  13
ATOM     13  C   UNL     1     134.465 125.175 121.431  1.00  0.00    -0.042 A 
ATOM     14  C   UNL     1     135.452 124.382 122.029  1.00  0.00    +0.004 A 
ATOM     15  C   UNL     1     134.225 125.044 120.052  1.00  0.00    +0.019 A 
ATOM     16  C   UNL     1     136.172 123.457 121.272  1.00  0.00    +0.001 A 
ATOM     17  C   UNL     1     134.948 124.114 119.286  1.00  0.00    +0.060 A 
ATOM     18  C   UNL     1     135.918 123.320 119.908  1.00  0.00    +0.016 A 
BRANCH  17  19
ATOM     19  C   UNL     1     134.717 123.929 117.827  1.00  0.00    +0.337 C 
ATOM     20  O   UNL     1     135.354 123.146 117.141  1.00  0.00    -0.246 OA
BRANCH  19  21
ATOM     21  O   UNL     1     133.706 124.725 117.399  1.00  0.00    -0.465 OA
ATOM     22  C   UNL     1     132.747 124.048 116.581  1.00  0.00    +0.282 C 
ENDBRANCH  19  21
ENDBRANCH  17  19
ENDBRANCH   1  13
TORSDOF 7
ENDMDL
MODEL 9
REMARK VINA RESULT:    -6.845      2.070      3.928
REMARK INTER + INTRA:         -11.745
REMARK INTER:                 -11.030
REMARK INTRA:                  -0.715
REMARK UNBOUND:                -2.099
REMARK SMILES COC(=O)c1cccc(CC[N@@H+](C)Cc2ccccc2)c1
REMARK SMILES IDX 10 1 11 2 12 3 13 4 14 6 15 7 16 8 20 9 17 10 19 11 18 12
REMARK SMILES IDX 9 13 8 14 21 15 7 16 5 17 6 18 3 19 4 20 2 21 1 22
REMARK H PARENT 12 5
REMARK INDEX MAP 4 1 3 2 2 3 1 4 25 5 15 6 16 7 17 8 21 9 18 10 20 11 19 12
REMARK INDEX MAP 5 13 6 14 10 15 7 16 9 17 8 18 11 19 12 20 13 21 14 22
ROOT
ATOM      1  C   UNL     1     136.087 123.646 122.001  1.00  0.00    +0.097 C 
ENDROOT
BRANCH   1   2
ATOM      2  C   UNL     1     136.428 124.863 122.876  1.00  0.00    +0.267 C 
BRANCH   2   3
ATOM      3  N   UNL     1     136.215 124.584 124.354  1.00  0.00    -0.333 N 
ATOM      4  C   UNL     1     137.109 125.403 125.244  1.00  0.00    +0.333 C 
ATOM      5  H   UNL     1     136.456 123.598 124.521  1.00  0.00    +0.348 HD
BRANCH   3   6
ATOM      6  C   UNL     1     134.754 124.702 124.743  1.00  0.00    +0.298 C 
BRANCH   6   7
ATOM      7  C   UNL     1     134.185 123.418 125.281  1.00  0.00    +0.006 A 
ATOM      8  C   UNL     1     134.905 122.217 125.163  1.00  0.00    +0.009 A 
ATOM      9  C   UNL     1     132.938 123.401 125.925  1.00  0.00    +0.009 A 
ATOM     10  C   UNL     1     134.390 121.030 125.685  1.00  0.00    +0.001 A 
ATOM     11  C   UNL     1     132.428 122.211 126.445  1.00  0.00    +0.001 A 
ATOM     12  C   UNL     1     133.155 121.029 126.327  1.00  0.00    +0.000 A 
ENDBRANCH   6   7
ENDBRANCH   3   6
ENDBRANCH   2   3
ENDBRANCH   1   2
BRANCH   1  13
ATOM     13  C   UNL     1     135.433 124.023 120.692  1.00  0.00    -0.042 A 
ATOM     14  C   UNL     1     134.820 125.274 120.541  1.00  0.00    +0.004 A 
ATOM     15  C   UNL     1     135.449 123.134 119.603  1.00  0.00    +0.019 A 
ATOM     16  C   UNL     1     134.254 125.642 119.320  1.00  0.00    +0.001 A 
ATOM     17  C   UNL     1     134.880 123.500 118.373  1.00  0.00    +0.060 A 
ATOM     18  C   UNL     1     134.288 124.761 118.238  1.00  0.00    +0.016 A 
BRANCH  17  19
ATOM     19  C   UNL     1     134.888 122.598 117.188  1.00  0.00    +0.337 C 
ATOM     20  O   UNL     1     135.230 122.957 116.073  1.00  0.00    -0.246 OA
BRANCH  19  21
ATOM     21  O   UNL     1     134.489 121.350 117.537  1.00  0.00    -0.465 OA
ATOM     22  C   UNL     1     135.247 120.308 116.916  1.00  0.00    +0.282 C 
ENDBRANCH  19  21
ENDBRANCH  17  19
ENDBRANCH   1  13
TORSDOF 7
ENDMDL
MODEL 10
REMARK VINA RESULT:    -6.841      2.763      4.193
REMARK INTER + INTRA:         -11.740
REMARK INTER:                 -11.406
REMARK INTRA:                  -0.334
REMARK UNBOUND:                -2.099
REMARK SMILES COC(=O)c1cccc(CC[N@@H+](C)Cc2ccccc2)c1
REMARK SMILES IDX 10 1 11 2 12 3 13 4 14 6 15 7 16 8 20 9 17 10 19 11 18 12
REMARK SMILES IDX 9 13 8 14 21 15 7 16 5 17 6 18 3 19 4 20 2 21 1 22
REMARK H PARENT 12 5
REMARK INDEX MAP 4 1 3 2 2 3 1 4 25 5 15 6 16 7 17 8 21 9 18 10 20 11 19 12
REMARK INDEX MAP 5 13 6 14 10 15 7 16 9 17 8 18 11 19 12 20 13 21 14 22
ROOT
ATOM      1  C   UNL     1     134.060 126.373 121.833  1.00  0.00    +0.097 C 
ENDROOT
BRANCH   1   2
ATOM      2  C   UNL     1     134.305 126.199 123.340  1.00  0.00    +0.267 C 
BRANCH   2   3
ATOM      3  N   UNL     1     133.010 126.189 124.135  1.00  0.00    -0.333 N 
ATOM      4  C   UNL     1     131.807 125.856 123.296  1.00  0.00    +0.333 C 
ATOM      5  H   UNL     1     132.863 127.140 124.497  1.00  0.00    +0.348 HD
BRANCH   3   6
ATOM      6  C   UNL     1     133.114 125.311 125.366  1.00  0.00    +0.298 C 
BRANCH   6   7
ATOM      7  C   UNL     1     131.842 125.276 126.169  1.00  0.00    +0.006 A 
ATOM      8  C   UNL     1     131.201 124.054 126.432  1.00  0.00    +0.009 A 
ATOM      9  C   UNL     1     131.288 126.458 126.683  1.00  0.00    +0.009 A 
ATOM     10  C   UNL     1     130.035 124.018 127.199  1.00  0.00    +0.001 A 
ATOM     11  C   UNL     1     130.122 126.417 127.449  1.00  0.00    +0.001 A 
ATOM     12  C   UNL     1     129.499 125.198 127.708  1.00  0.00    +0.000 A 
ENDBRANCH   6   7
ENDBRANCH   3   6
ENDBRANCH   2   3
ENDBRANCH   1   2
BRANCH   1  13
ATOM     13  C   UNL     1     134.630 125.244 121.006  1.00  0.00    -0.042 A 
ATOM     14  C   UNL     1     135.498 124.310 121.586  1.00  0.00    +0.004 A 
ATOM     15  C   UNL     1     134.281 125.103 119.652  1.00  0.00    +0.019 A 
ATOM     16  C   UNL     1     135.992 123.242 120.836  1.00  0.00    +0.001 A 
ATOM     17  C   UNL     1     134.775 124.030 118.893  1.00  0.00    +0.060 A 
ATOM     18  C   UNL     1     135.628 123.099 119.497  1.00  0.00    +0.016 A 
BRANCH  17  19
ATOM     19  C   UNL     1     134.420 123.831 117.461  1.00  0.00    +0.337 C 
ATOM     20  O   UNL     1     133.341 124.148 116.987  1.00  0.00    -0.246 OA
BRANCH  19  21
ATOM     21  O   UNL     1     135.459 123.282 116.785  1.00  0.00    -0.465 OA
ATOM     22  C   UNL     1     135.128 122.065 116.109  1.00  0.00    +0.282 C 
ENDBRANCH  19  21
ENDBRANCH  17  19
ENDBRANCH   1  13
TORSDOF 7
ENDMDL
MODEL 11
REMARK VINA RESULT:    -6.825      1.724      2.596
REMARK INTER + INTRA:         -11.718
REMARK INTER:                 -10.868
REMARK INTRA:                  -0.850
REMARK UNBOUND:                -2.099
REMARK SMILES COC(=O)c1cccc(CC[N@@H+](C)Cc2ccccc2)c1
REMARK SMILES IDX 10 1 11 2 12 3 13 4 14 6 15 7 16 8 20 9 17 10 19 11 18 12
REMARK SMILES IDX 9 13 8 14 21 15 7 16 5 17 6 18 3 19 4 20 2 21 1 22
REMARK H PARENT 12 5
REMARK INDEX MAP 4 1 3 2 2 3 1 4 25 5 15 6 16 7 17 8 21 9 18 10 20 11 19 12
REMARK INDEX MAP 5 13 6 14 10 15 7 16 9 17 8 18 11 19 12 20 13 21 14 22
ROOT
ATOM      1  C   UNL     1     136.087 123.612 123.317  1.00  0.00    +0.097 C 
ENDROOT
BRANCH   1   2
ATOM      2  C   UNL     1     135.544 122.245 123.762  1.00  0.00    +0.267 C 
BRANCH   2   3
ATOM      3  N   UNL     1     135.293 122.187 125.259  1.00  0.00    -0.333 N 
ATOM      4  C   UNL     1     136.384 121.478 126.013  1.00  0.00    +0.333 C 
ATOM      5  H   UNL     1     134.432 121.645 125.407  1.00  0.00    +0.348 HD
BRANCH   3   6
ATOM      6  C   UNL     1     134.997 123.560 125.832  1.00  0.00    +0.298 C 
BRANCH   6   7
ATOM      7  C   UNL     1     133.537 123.771 126.124  1.00  0.00    +0.006 A 
ATOM      8  C   UNL     1     132.977 125.058 126.054  1.00  0.00    +0.009 A 
ATOM      9  C   UNL     1     132.709 122.686 126.451  1.00  0.00    +0.009 A 
ATOM     10  C   UNL     1     131.617 125.251 126.299  1.00  0.00    +0.001 A 
ATOM     11  C   UNL     1     131.348 122.885 126.694  1.00  0.00    +0.001 A 
ATOM     12  C   UNL     1     130.804 124.165 126.616  1.00  0.00    +0.000 A 
ENDBRANCH   6   7
ENDBRANCH   3   6
ENDBRANCH   2   3
ENDBRANCH   1   2
BRANCH   1  13
ATOM     13  C   UNL     1     135.395 124.151 122.086  1.00  0.00    -0.042 A 
ATOM     14  C   UNL     1     134.632 125.324 122.159  1.00  0.00    +0.004 A 
ATOM     15  C   UNL     1     135.525 123.497 120.849  1.00  0.00    +0.019 A 
ATOM     16  C   UNL     1     134.028 125.847 121.015  1.00  0.00    +0.001 A 
ATOM     17  C   UNL     1     134.919 124.020 119.696  1.00  0.00    +0.060 A 
ATOM     18  C   UNL     1     134.175 125.202 119.788  1.00  0.00    +0.016 A 
BRANCH  17  19
ATOM     19  C   UNL     1     135.043 123.370 118.361  1.00  0.00    +0.337 C 
ATOM     20  O   UNL     1     134.717 123.912 117.318  1.00  0.00    -0.246 OA
BRANCH  19  21
ATOM     21  O   UNL     1     135.579 122.131 118.484  1.00  0.00    -0.465 OA
ATOM     22  C   UNL     1     134.767 121.094 117.924  1.00  0.00    +0.282 C 
ENDBRANCH  19  21
ENDBRANCH  17  19
ENDBRANCH   1  13
TORSDOF 7
ENDMDL
MODEL 12
REMARK VINA RESULT:    -6.814      3.864      6.540
REMARK INTER + INTRA:         -11.702
REMARK INTER:                 -10.901
REMARK INTRA:                  -0.801
REMARK UNBOUND:                -2.099
REMARK SMILES COC(=O)c1cccc(CC[N@@H+](C)Cc2ccccc2)c1
REMARK SMILES IDX 10 1 11 2 12 3 13 4 14 6 15 7 16 8 20 9 17 10 19 11 18 12
REMARK SMILES IDX 9 13 8 14 21 15 7 16 5 17 6 18 3 19 4 20 2 21 1 22
REMARK H PARENT 12 5
REMARK INDEX MAP 4 1 3 2 2 3 1 4 25 5 15 6 16 7 17 8 21 9 18 10 20 11 19 12
REMARK INDEX MAP 5 13 6 14 10 15 7 16 9 17 8 18 11 19 12 20 13 21 14 22
ROOT
ATOM      1  C   UNL     1     132.547 123.326 126.101  1.00  0.00    +0.097 C 
ENDROOT
BRANCH   1   2
ATOM      2  C   UNL     1     133.923 123.957 126.362  1.00  0.00    +0.267 C 
BRANCH   2   3
ATOM      3  N   UNL     1     134.876 123.758 125.195  1.00  0.00    -0.333 N 
ATOM      4  C   UNL     1     136.148 123.057 125.586  1.00  0.00    +0.333 C 
ATOM      5  H   UNL     1     135.146 124.690 124.855  1.00  0.00    +0.348 HD
BRANCH   3   6
ATOM      6  C   UNL     1     134.191 123.093 124.018  1.00  0.00    +0.298 C 
BRANCH   6   7
ATOM      7  C   UNL     1     134.236 123.926 122.766  1.00  0.00    +0.006 A 
ATOM      8  C   UNL     1     135.052 123.544 121.687  1.00  0.00    +0.009 A 
ATOM      9  C   UNL     1     133.453 125.084 122.649  1.00  0.00    +0.009 A 
ATOM     10  C   UNL     1     135.075 124.302 120.516  1.00  0.00    +0.001 A 
ATOM     11  C   UNL     1     133.479 125.838 121.475  1.00  0.00    +0.001 A 
ATOM     12  C   UNL     1     134.288 125.445 120.410  1.00  0.00    +0.000 A 
ENDBRANCH   6   7
ENDBRANCH   3   6
ENDBRANCH   2   3
ENDBRANCH   1   2
BRANCH   1  13
ATOM     13  C   UNL     1     131.404 124.149 126.651  1.00  0.00    -0.042 A 
ATOM     14  C   UNL     1     130.237 123.523 127.109  1.00  0.00    +0.004 A 
ATOM     15  C   UNL     1     131.506 125.548 126.729  1.00  0.00    +0.019 A 
ATOM     16  C   UNL     1     129.199 124.278 127.657  1.00  0.00    +0.001 A 
ATOM     17  C   UNL     1     130.463 126.311 127.279  1.00  0.00    +0.060 A 
ATOM     18  C   UNL     1     129.313 125.665 127.746  1.00  0.00    +0.016 A 
BRANCH  17  19
ATOM     19  C   UNL     1     130.532 127.794 127.397  1.00  0.00    +0.337 C 
ATOM     20  O   UNL     1     129.570 128.526 127.234  1.00  0.00    -0.246 OA
BRANCH  19  21
ATOM     21  O   UNL     1     131.788 128.187 127.726  1.00  0.00    -0.465 OA
ATOM     22  C   UNL     1     131.864 128.888 128.971  1.00  0.00    +0.282 C 
ENDBRANCH  19  21
ENDBRANCH  17  19
ENDBRANCH   1  13
TORSDOF 7
ENDMDL
MODEL 13
REMARK VINA RESULT:    -6.804      2.156      4.025
REMARK INTER + INTRA:         -11.688
REMARK INTER:                 -11.352
REMARK INTRA:                  -0.336
REMARK UNBOUND:                -2.099
REMARK SMILES COC(=O)c1cccc(CC[N@@H+](C)Cc2ccccc2)c1
REMARK SMILES IDX 10 1 11 2 12 3 13 4 14 6 15 7 16 8 20 9 17 10 19 11 18 12
REMARK SMILES IDX 9 13 8 14 21 15 7 16 5 17 6 18 3 19 4 20 2 21 1 22
REMARK H PARENT 12 5
REMARK INDEX MAP 4 1 3 2 2 3 1 4 25 5 15 6 16 7 17 8 21 9 18 10 20 11 19 12
REMARK INDEX MAP 5 13 6 14 10 15 7 16 9 17 8 18 11 19 12 20 13 21 14 22
ROOT
ATOM      1  C   UNL     1     134.668 126.320 121.863  1.00  0.00    +0.097 C 
ENDROOT
BRANCH   1   2
ATOM      2  C   UNL     1     135.689 126.796 122.908  1.00  0.00    +0.267 C 
BRANCH   2   3
ATOM      3  N   UNL     1     135.957 125.742 123.969  1.00  0.00    -0.333 N 
ATOM      4  C   UNL     1     136.966 126.181 124.995  1.00  0.00    +0.333 C 
ATOM      5  H   UNL     1     136.357 124.922 123.495  1.00  0.00    +0.348 HD
BRANCH   3   6
ATOM      6  C   UNL     1     134.673 125.243 124.603  1.00  0.00    +0.298 C 
BRANCH   6   7
ATOM      7  C   UNL     1     134.773 123.823 125.090  1.00  0.00    +0.006 A 
ATOM      8  C   UNL     1     135.010 122.776 124.183  1.00  0.00    +0.009 A 
ATOM      9  C   UNL     1     134.650 123.525 126.455  1.00  0.00    +0.009 A 
ATOM     10  C   UNL     1     135.129 121.462 124.637  1.00  0.00    +0.001 A 
ATOM     11  C   UNL     1     134.769 122.209 126.904  1.00  0.00    +0.001 A 
ATOM     12  C   UNL     1     135.011 121.180 125.995  1.00  0.00    +0.000 A 
ENDBRANCH   6   7
ENDBRANCH   3   6
ENDBRANCH   2   3
ENDBRANCH   1   2
BRANCH   1  13
ATOM     13  C   UNL     1     135.173 125.171 121.021  1.00  0.00    -0.042 A 
ATOM     14  C   UNL     1     136.234 124.375 121.473  1.00  0.00    +0.004 A 
ATOM     15  C   UNL     1     134.574 124.873 119.786  1.00  0.00    +0.019 A 
ATOM     16  C   UNL     1     136.674 123.288 120.718  1.00  0.00    +0.001 A 
ATOM     17  C   UNL     1     135.013 123.780 119.023  1.00  0.00    +0.060 A 
ATOM     18  C   UNL     1     136.063 122.988 119.501  1.00  0.00    +0.016 A 
BRANCH  17  19
ATOM     19  C   UNL     1     134.398 123.417 117.716  1.00  0.00    +0.337 C 
ATOM     20  O   UNL     1     134.432 122.291 117.248  1.00  0.00    -0.246 OA
BRANCH  19  21
ATOM     21  O   UNL     1     133.794 124.495 117.158  1.00  0.00    -0.465 OA
ATOM     22  C   UNL     1     132.536 124.197 116.545  1.00  0.00    +0.282 C 
ENDBRANCH  19  21
ENDBRANCH  17  19
ENDBRANCH   1  13
TORSDOF 7
ENDMDL
MODEL 14
REMARK VINA RESULT:    -6.783      2.007      4.060
REMARK INTER + INTRA:         -11.658
REMARK INTER:                 -11.123
REMARK INTRA:                  -0.535
REMARK UNBOUND:                -2.099
REMARK SMILES COC(=O)c1cccc(CC[N@@H+](C)Cc2ccccc2)c1
REMARK SMILES IDX 10 1 11 2 12 3 13 4 14 6 15 7 16 8 20 9 17 10 19 11 18 12
REMARK SMILES IDX 9 13 8 14 21 15 7 16 5 17 6 18 3 19 4 20 2 21 1 22
REMARK H PARENT 12 5
REMARK INDEX MAP 4 1 3 2 2 3 1 4 25 5 15 6 16 7 17 8 21 9 18 10 20 11 19 12
REMARK INDEX MAP 5 13 6 14 10 15 7 16 9 17 8 18 11 19 12 20 13 21 14 22
ROOT
ATOM      1  C   UNL     1     135.923 123.577 122.645  1.00  0.00    +0.097 C 
ENDROOT
BRANCH   1   2
ATOM      2  C   UNL     1     136.117 124.840 123.500  1.00  0.00    +0.267 C 
BRANCH   2   3
ATOM      3  N   UNL     1     135.183 124.870 124.698  1.00  0.00    -0.333 N 
ATOM      4  C   UNL     1     134.182 125.991 124.636  1.00  0.00    +0.333 C 
ATOM      5  H   UNL     1     135.759 125.035 125.534  1.00  0.00    +0.348 HD
BRANCH   3   6
ATOM      6  C   UNL     1     134.526 123.524 124.933  1.00  0.00    +0.298 C 
BRANCH   6   7
ATOM      7  C   UNL     1     135.239 122.697 125.968  1.00  0.00    +0.006 A 
ATOM      8  C   UNL     1     134.870 122.780 127.321  1.00  0.00    +0.009 A 
ATOM      9  C   UNL     1     136.267 121.818 125.597  1.00  0.00    +0.009 A 
ATOM     10  C   UNL     1     135.512 121.994 128.278  1.00  0.00    +0.001 A 
ATOM     11  C   UNL     1     136.907 121.034 126.558  1.00  0.00    +0.001 A 
ATOM     12  C   UNL     1     136.527 121.121 127.896  1.00  0.00    +0.000 A 
ENDBRANCH   6   7
ENDBRANCH   3   6
ENDBRANCH   2   3
ENDBRANCH   1   2
BRANCH   1  13
ATOM     13  C   UNL     1     135.412 123.877 121.254  1.00  0.00    -0.042 A 
ATOM     14  C   UNL     1     134.904 125.146 120.945  1.00  0.00    +0.004 A 
ATOM     15  C   UNL     1     135.459 122.896 120.250  1.00  0.00    +0.019 A 
ATOM     16  C   UNL     1     134.471 125.438 119.651  1.00  0.00    +0.001 A 
ATOM     17  C   UNL     1     135.025 123.185 118.946  1.00  0.00    +0.060 A 
ATOM     18  C   UNL     1     134.536 124.464 118.654  1.00  0.00    +0.016 A 
BRANCH  17  19
ATOM     19  C   UNL     1     135.070 122.183 117.846  1.00  0.00    +0.337 C 
ATOM     20  O   UNL     1     134.864 120.993 118.013  1.00  0.00    -0.246 OA
BRANCH  19  21
ATOM     21  O   UNL     1     135.347 122.787 116.663  1.00  0.00    -0.465 OA
ATOM     22  C   UNL     1     135.016 121.992 115.520  1.00  0.00    +0.282 C 
ENDBRANCH  19  21
ENDBRANCH  17  19
ENDBRANCH   1  13
TORSDOF 7
ENDMDL
MODEL 15
REMARK VINA RESULT:    -6.653      4.004      6.610
REMARK INTER + INTRA:         -11.475
REMARK INTER:                 -10.633
REMARK INTRA:                  -0.842
REMARK UNBOUND:                -2.099
REMARK SMILES COC(=O)c1cccc(CC[N@@H+](C)Cc2ccccc2)c1
REMARK SMILES IDX 10 1 11 2 12 3 13 4 14 6 15 7 16 8 20 9 17 10 19 11 18 12
REMARK SMILES IDX 9 13 8 14 21 15 7 16 5 17 6 18 3 19 4 20 2 21 1 22
REMARK H PARENT 12 5
REMARK INDEX MAP 4 1 3 2 2 3 1 4 25 5 15 6 16 7 17 8 21 9 18 10 20 11 19 12
REMARK INDEX MAP 5 13 6 14 10 15 7 16 9 17 8 18 11 19 12 20 13 21 14 22
ROOT
ATOM      1  C   UNL     1     133.413 125.906 125.070  1.00  0.00    +0.097 C 
ENDROOT
BRANCH   1   2
ATOM      2  C   UNL     1     133.872 124.979 123.933  1.00  0.00    +0.267 C 
BRANCH   2   3
ATOM      3  N   UNL     1     135.322 125.217 123.549  1.00  0.00    -0.333 N 
ATOM      4  C   UNL     1     135.903 126.453 124.179  1.00  0.00    +0.333 C 
ATOM      5  H   UNL     1     135.353 125.361 122.532  1.00  0.00    +0.348 HD
BRANCH   3   6
ATOM      6  C   UNL     1     136.177 123.989 123.798  1.00  0.00    +0.298 C 
BRANCH   6   7
ATOM      7  C   UNL     1     135.639 123.112 124.895  1.00  0.00    +0.006 A 
ATOM      8  C   UNL     1     135.698 123.533 126.235  1.00  0.00    +0.009 A 
ATOM      9  C   UNL     1     135.054 121.872 124.598  1.00  0.00    +0.009 A 
ATOM     10  C   UNL     1     135.175 122.732 127.250  1.00  0.00    +0.001 A 
ATOM     11  C   UNL     1     134.532 121.075 125.618  1.00  0.00    +0.001 A 
ATOM     12  C   UNL     1     134.591 121.507 126.941  1.00  0.00    +0.000 A 
ENDBRANCH   6   7
ENDBRANCH   3   6
ENDBRANCH   2   3
ENDBRANCH   1   2
BRANCH   1  13
ATOM     13  C   UNL     1     132.229 125.362 125.836  1.00  0.00    -0.042 A 
ATOM     14  C   UNL     1     132.044 123.979 125.965  1.00  0.00    +0.004 A 
ATOM     15  C   UNL     1     131.313 126.234 126.448  1.00  0.00    +0.019 A 
ATOM     16  C   UNL     1     130.977 123.475 126.708  1.00  0.00    +0.001 A 
ATOM     17  C   UNL     1     130.237 125.730 127.197  1.00  0.00    +0.060 A 
ATOM     18  C   UNL     1     130.080 124.346 127.327  1.00  0.00    +0.016 A 
BRANCH  17  19
ATOM     19  C   UNL     1     129.250 126.616 127.876  1.00  0.00    +0.337 C 
ATOM     20  O   UNL     1     129.166 126.722 129.088  1.00  0.00    -0.246 OA
BRANCH  19  21
ATOM     21  O   UNL     1     128.499 127.279 126.962  1.00  0.00    -0.465 OA
ATOM     22  C   UNL     1     128.930 128.624 126.731  1.00  0.00    +0.282 C 
ENDBRANCH  19  21
ENDBRANCH  17  19
ENDBRANCH   1  13
TORSDOF 7
ENDMDL
MODEL 16
REMARK VINA RESULT:    -6.448      3.251      5.076
REMARK INTER + INTRA:         -11.186
REMARK INTER:                 -10.891
REMARK INTRA:                  -0.295
REMARK UNBOUND:                -2.099
REMARK SMILES COC(=O)c1cccc(CC[N@@H+](C)Cc2ccccc2)c1
REMARK SMILES IDX 10 1 11 2 12 3 13 4 14 6 15 7 16 8 20 9 17 10 19 11 18 12
REMARK SMILES IDX 9 13 8 14 21 15 7 16 5 17 6 18 3 19 4 20 2 21 1 22
REMARK H PARENT 12 5
REMARK INDEX MAP 4 1 3 2 2 3 1 4 25 5 15 6 16 7 17 8 21 9 18 10 20 11 19 12
REMARK INDEX MAP 5 13 6 14 10 15 7 16 9 17 8 18 11 19 12 20 13 21 14 22
ROOT
ATOM      1  C   UNL     1     132.310 124.473 123.229  1.00  0.00    +0.097 C 
ENDROOT
BRANCH   1   2
ATOM      2  C   UNL     1     132.333 126.003 123.078  1.00  0.00    +0.267 C 
BRANCH   2   3
ATOM      3  N   UNL     1     131.724 126.706 124.279  1.00  0.00    -0.333 N 
ATOM      4  C   UNL     1     130.223 126.794 124.211  1.00  0.00    +0.333 C 
ATOM      5  H   UNL     1     132.076 127.672 124.282  1.00  0.00    +0.348 HD
BRANCH   3   6
ATOM      6  C   UNL     1     132.206 126.107 125.586  1.00  0.00    +0.298 C 
BRANCH   6   7
ATOM      7  C   UNL     1     131.079 125.740 126.513  1.00  0.00    +0.006 A 
ATOM      8  C   UNL     1     130.514 126.707 127.362  1.00  0.00    +0.009 A 
ATOM      9  C   UNL     1     130.564 124.435 126.531  1.00  0.00    +0.009 A 
ATOM     10  C   UNL     1     129.452 126.373 128.204  1.00  0.00    +0.001 A 
ATOM     11  C   UNL     1     129.502 124.107 127.375  1.00  0.00    +0.001 A 
ATOM     12  C   UNL     1     128.946 125.076 128.207  1.00  0.00    +0.000 A 
ENDBRANCH   6   7
ENDBRANCH   3   6
ENDBRANCH   2   3
ENDBRANCH   1   2
BRANCH   1  13
ATOM     13  C   UNL     1     133.683 123.848 123.137  1.00  0.00    -0.042 A 
ATOM     14  C   UNL     1     134.414 123.914 121.944  1.00  0.00    +0.004 A 
ATOM     15  C   UNL     1     134.253 123.212 124.253  1.00  0.00    +0.019 A 
ATOM     16  C   UNL     1     135.699 123.376 121.870  1.00  0.00    +0.001 A 
ATOM     17  C   UNL     1     135.547 122.669 124.184  1.00  0.00    +0.060 A 
ATOM     18  C   UNL     1     136.265 122.761 122.986  1.00  0.00    +0.016 A 
BRANCH  17  19
ATOM     19  C   UNL     1     136.198 122.001 125.344  1.00  0.00    +0.337 C 
ATOM     20  O   UNL     1     137.406 121.965 125.507  1.00  0.00    -0.246 OA
BRANCH  19  21
ATOM     21  O   UNL     1     135.264 121.475 126.176  1.00  0.00    -0.465 OA
ATOM     22  C   UNL     1     135.309 122.009 127.502  1.00  0.00    +0.282 C 
ENDBRANCH  19  21
ENDBRANCH  17  19
ENDBRANCH   1  13
TORSDOF 7
ENDMDL
MODEL 17
REMARK VINA RESULT:    -6.431      2.526      4.317
REMARK INTER + INTRA:         -11.162
REMARK INTER:                 -10.455
REMARK INTRA:                  -0.707
REMARK UNBOUND:                -2.099
REMARK SMILES COC(=O)c1cccc(CC[N@@H+](C)Cc2ccccc2)c1
REMARK SMILES IDX 10 1 11 2 12 3 13 4 14 6 15 7 16 8 20 9 17 10 19 11 18 12
REMARK SMILES IDX 9 13 8 14 21 15 7 16 5 17 6 18 3 19 4 20 2 21 1 22
REMARK H PARENT 12 5
REMARK INDEX MAP 4 1 3 2 2 3 1 4 25 5 15 6 16 7 17 8 21 9 18 10 20 11 19 12
REMARK INDEX MAP 5 13 6 14 10 15 7 16 9 17 8 18 11 19 12 20 13 21 14 22
ROOT
ATOM      1  C   UNL     1     132.114 124.984 122.331  1.00  0.00    +0.097 C 
ENDROOT
BRANCH   1   2
ATOM      2  C   UNL     1     131.748 124.316 123.667  1.00  0.00    +0.267 C 
BRANCH   2   3
ATOM      3  N   UNL     1     131.716 125.310 124.815  1.00  0.00    -0.333 N 
ATOM      4  C   UNL     1     130.742 126.435 124.594  1.00  0.00    +0.333 C 
ATOM      5  H   UNL     1     132.649 125.737 124.880  1.00  0.00    +0.348 HD
BRANCH   3   6
ATOM      6  C   UNL     1     131.505 124.621 126.149  1.00  0.00    +0.298 C 
BRANCH   6   7
ATOM      7  C   UNL     1     132.498 123.520 126.404  1.00  0.00    +0.006 A 
ATOM      8  C   UNL     1     133.850 123.823 126.637  1.00  0.00    +0.009 A 
ATOM      9  C   UNL     1     132.088 122.179 126.430  1.00  0.00    +0.009 A 
ATOM     10  C   UNL     1     134.767 122.804 126.899  1.00  0.00    +0.001 A 
ATOM     11  C   UNL     1     133.009 121.164 126.692  1.00  0.00    +0.001 A 
ATOM     12  C   UNL     1     134.346 121.478 126.928  1.00  0.00    +0.000 A 
ENDBRANCH   6   7
ENDBRANCH   3   6
ENDBRANCH   2   3
ENDBRANCH   1   2
BRANCH   1  13
ATOM     13  C   UNL     1     133.598 125.218 122.173  1.00  0.00    -0.042 A 
ATOM     14  C   UNL     1     134.133 125.555 120.923  1.00  0.00    +0.004 A 
ATOM     15  C   UNL     1     134.458 125.122 123.281  1.00  0.00    +0.019 A 
ATOM     16  C   UNL     1     135.497 125.813 120.784  1.00  0.00    +0.001 A 
ATOM     17  C   UNL     1     135.831 125.382 123.145  1.00  0.00    +0.060 A 
ATOM     18  C   UNL     1     136.342 125.733 121.891  1.00  0.00    +0.016 A 
BRANCH  17  19
ATOM     19  C   UNL     1     136.777 125.309 124.293  1.00  0.00    +0.337 C 
ATOM     20  O   UNL     1     137.017 124.279 124.901  1.00  0.00    -0.246 OA
BRANCH  19  21
ATOM     21  O   UNL     1     137.329 126.524 124.533  1.00  0.00    -0.465 OA
ATOM     22  C   UNL     1     136.421 127.464 125.114  1.00  0.00    +0.282 C 
ENDBRANCH  19  21
ENDBRANCH  17  19
ENDBRANCH   1  13
TORSDOF 7
ENDMDL
MODEL 18
REMARK VINA RESULT:    -6.406      3.043      6.339
REMARK INTER + INTRA:         -11.126
REMARK INTER:                 -10.458
REMARK INTRA:                  -0.668
REMARK UNBOUND:                -2.099
REMARK SMILES COC(=O)c1cccc(CC[N@@H+](C)Cc2ccccc2)c1
REMARK SMILES IDX 10 1 11 2 12 3 13 4 14 6 15 7 16 8 20 9 17 10 19 11 18 12
REMARK SMILES IDX 9 13 8 14 21 15 7 16 5 17 6 18 3 19 4 20 2 21 1 22
REMARK H PARENT 12 5
REMARK INDEX MAP 4 1 3 2 2 3 1 4 25 5 15 6 16 7 17 8 21 9 18 10 20 11 19 12
REMARK INDEX MAP 5 13 6 14 10 15 7 16 9 17 8 18 11 19 12 20 13 21 14 22
ROOT
ATOM      1  C   UNL     1     133.812 125.933 122.828  1.00  0.00    +0.097 C 
ENDROOT
BRANCH   1   2
ATOM      2  C   UNL     1     133.791 125.035 121.581  1.00  0.00    +0.267 C 
BRANCH   2   3
ATOM      3  N   UNL     1     135.147 124.972 120.897  1.00  0.00    -0.333 N 
ATOM      4  C   UNL     1     136.171 125.871 121.534  1.00  0.00    +0.333 C 
ATOM      5  H   UNL     1     135.021 125.305 119.932  1.00  0.00    +0.348 HD
BRANCH   3   6
ATOM      6  C   UNL     1     135.641 123.545 120.759  1.00  0.00    +0.298 C 
BRANCH   6   7
ATOM      7  C   UNL     1     135.326 122.943 119.416  1.00  0.00    +0.006 A 
ATOM      8  C   UNL     1     135.342 121.549 119.241  1.00  0.00    +0.009 A 
ATOM      9  C   UNL     1     134.994 123.761 118.326  1.00  0.00    +0.009 A 
ATOM     10  C   UNL     1     135.025 120.989 118.003  1.00  0.00    +0.001 A 
ATOM     11  C   UNL     1     134.677 123.196 117.090  1.00  0.00    +0.001 A 
ATOM     12  C   UNL     1     134.691 121.812 116.931  1.00  0.00    +0.000 A 
ENDBRANCH   6   7
ENDBRANCH   3   6
ENDBRANCH   2   3
ENDBRANCH   1   2
BRANCH   1  13
ATOM     13  C   UNL     1     133.508 125.182 124.104  1.00  0.00    -0.042 A 
ATOM     14  C   UNL     1     132.548 125.668 125.000  1.00  0.00    +0.004 A 
ATOM     15  C   UNL     1     134.168 123.976 124.396  1.00  0.00    +0.019 A 
ATOM     16  C   UNL     1     132.235 124.954 126.157  1.00  0.00    +0.001 A 
ATOM     17  C   UNL     1     133.856 123.254 125.560  1.00  0.00    +0.060 A 
ATOM     18  C   UNL     1     132.882 123.750 126.434  1.00  0.00    +0.016 A 
BRANCH  17  19
ATOM     19  C   UNL     1     134.517 121.965 125.903  1.00  0.00    +0.337 C 
ATOM     20  O   UNL     1     134.105 120.879 125.530  1.00  0.00    -0.246 OA
BRANCH  19  21
ATOM     21  O   UNL     1     135.625 122.183 126.654  1.00  0.00    -0.465 OA
ATOM     22  C   UNL     1     136.775 121.459 126.206  1.00  0.00    +0.282 C 
ENDBRANCH  19  21
ENDBRANCH  17  19
ENDBRANCH   1  13
TORSDOF 7
ENDMDL
MODEL 19
REMARK VINA RESULT:    -6.379      1.751      3.593
REMARK INTER + INTRA:         -11.089
REMARK INTER:                 -10.189
REMARK INTRA:                  -0.900
REMARK UNBOUND:                -2.099
REMARK SMILES COC(=O)c1cccc(CC[N@@H+](C)Cc2ccccc2)c1
REMARK SMILES IDX 10 1 11 2 12 3 13 4 14 6 15 7 16 8 20 9 17 10 19 11 18 12
REMARK SMILES IDX 9 13 8 14 21 15 7 16 5 17 6 18 3 19 4 20 2 21 1 22
REMARK H PARENT 12 5
REMARK INDEX MAP 4 1 3 2 2 3 1 4 25 5 15 6 16 7 17 8 21 9 18 10 20 11 19 12
REMARK INDEX MAP 5 13 6 14 10 15 7 16 9 17 8 18 11 19 12 20 13 21 14 22
ROOT
ATOM      1  C   UNL     1     134.289 125.493 124.140  1.00  0.00    +0.097 C 
ENDROOT
BRANCH   1   2
ATOM      2  C   UNL     1     132.824 125.367 124.587  1.00  0.00    +0.267 C 
BRANCH   2   3
ATOM      3  N   UNL     1     132.695 125.208 126.093  1.00  0.00    -0.333 N 
ATOM      4  C   UNL     1     131.738 126.191 126.709  1.00  0.00    +0.333 C 
ATOM      5  H   UNL     1     133.618 125.398 126.503  1.00  0.00    +0.348 HD
BRANCH   3   6
ATOM      6  C   UNL     1     132.378 123.777 126.482  1.00  0.00    +0.298 C 
BRANCH   6   7
ATOM      7  C   UNL     1     133.548 122.849 126.302  1.00  0.00    +0.006 A 
ATOM      8  C   UNL     1     133.437 121.716 125.478  1.00  0.00    +0.009 A 
ATOM      9  C   UNL     1     134.772 123.108 126.938  1.00  0.00    +0.009 A 
ATOM     10  C   UNL     1     134.530 120.869 125.290  1.00  0.00    +0.001 A 
ATOM     11  C   UNL     1     135.862 122.258 126.747  1.00  0.00    +0.001 A 
ATOM     12  C   UNL     1     135.740 121.142 125.922  1.00  0.00    +0.000 A 
ENDBRANCH   6   7
ENDBRANCH   3   6
ENDBRANCH   2   3
ENDBRANCH   1   2
BRANCH   1  13
ATOM     13  C   UNL     1     134.462 125.389 122.642  1.00  0.00    -0.042 A 
ATOM     14  C   UNL     1     134.008 126.415 121.803  1.00  0.00    +0.004 A 
ATOM     15  C   UNL     1     135.098 124.272 122.074  1.00  0.00    +0.019 A 
ATOM     16  C   UNL     1     134.206 126.340 120.424  1.00  0.00    +0.001 A 
ATOM     17  C   UNL     1     135.299 124.193 120.686  1.00  0.00    +0.060 A 
ATOM     18  C   UNL     1     134.853 125.237 119.868  1.00  0.00    +0.016 A 
BRANCH  17  19
ATOM     19  C   UNL     1     135.982 123.038 120.041  1.00  0.00    +0.337 C 
ATOM     20  O   UNL     1     137.011 122.542 120.469  1.00  0.00    -0.246 OA
BRANCH  19  21
ATOM     21  O   UNL     1     135.290 122.624 118.951  1.00  0.00    -0.465 OA
ATOM     22  C   UNL     1     135.284 121.204 118.778  1.00  0.00    +0.282 C 
ENDBRANCH  19  21
ENDBRANCH  17  19
ENDBRANCH   1  13
TORSDOF 7
ENDMDL
MODEL 20
REMARK VINA RESULT:    -6.286      1.856      2.703
REMARK INTER + INTRA:         -10.957
REMARK INTER:                  -9.990
REMARK INTRA:                  -0.967
REMARK UNBOUND:                -2.099
REMARK SMILES COC(=O)c1cccc(CC[N@@H+](C)Cc2ccccc2)c1
REMARK SMILES IDX 10 1 11 2 12 3 13 4 14 6 15 7 16 8 20 9 17 10 19 11 18 12
REMARK SMILES IDX 9 13 8 14 21 15 7 16 5 17 6 18 3 19 4 20 2 21 1 22
REMARK H PARENT 12 5
REMARK INDEX MAP 4 1 3 2 2 3 1 4 25 5 15 6 16 7 17 8 21 9 18 10 20 11 19 12
REMARK INDEX MAP 5 13 6 14 10 15 7 16 9 17 8 18 11 19 12 20 13 21 14 22
ROOT
ATOM      1  C   UNL     1     136.516 122.546 123.879  1.00  0.00    +0.097 C 
ENDROOT
BRANCH   1   2
ATOM      2  C   UNL     1     135.377 121.698 124.466  1.00  0.00    +0.267 C 
BRANCH   2   3
ATOM      3  N   UNL     1     135.392 121.690 125.985  1.00  0.00    -0.333 N 
ATOM      4  C   UNL     1     136.636 121.068 126.559  1.00  0.00    +0.333 C 
ATOM      5  H   UNL     1     134.602 121.112 126.299  1.00  0.00    +0.348 HD
BRANCH   3   6
ATOM      6  C   UNL     1     135.123 123.068 126.557  1.00  0.00    +0.298 C 
BRANCH   6   7
ATOM      7  C   UNL     1     133.679 123.475 126.450  1.00  0.00    +0.006 A 
ATOM      8  C   UNL     1     133.335 124.795 126.113  1.00  0.00    +0.009 A 
ATOM      9  C   UNL     1     132.655 122.540 126.666  1.00  0.00    +0.009 A 
ATOM     10  C   UNL     1     131.996 125.166 125.989  1.00  0.00    +0.001 A 
ATOM     11  C   UNL     1     131.317 122.917 126.540  1.00  0.00    +0.001 A 
ATOM     12  C   UNL     1     130.989 124.228 126.199  1.00  0.00    +0.000 A 
ENDBRANCH   6   7
ENDBRANCH   3   6
ENDBRANCH   2   3
ENDBRANCH   1   2
BRANCH   1  13
ATOM     13  C   UNL     1     136.084 123.378 122.693  1.00  0.00    -0.042 A 
ATOM     14  C   UNL     1     136.470 123.017 121.396  1.00  0.00    +0.004 A 
ATOM     15  C   UNL     1     135.273 124.512 122.874  1.00  0.00    +0.019 A 
ATOM     16  C   UNL     1     136.036 123.758 120.296  1.00  0.00    +0.001 A 
ATOM     17  C   UNL     1     134.834 125.261 121.770  1.00  0.00    +0.060 A 
ATOM     18  C   UNL     1     135.218 124.872 120.482  1.00  0.00    +0.016 A 
BRANCH  17  19
ATOM     19  C   UNL     1     133.962 126.459 121.912  1.00  0.00    +0.337 C 
ATOM     20  O   UNL     1     134.174 127.516 121.341  1.00  0.00    -0.246 OA
BRANCH  19  21
ATOM     21  O   UNL     1     132.915 126.191 122.732  1.00  0.00    -0.465 OA
ATOM     22  C   UNL     1     132.048 125.165 122.241  1.00  0.00    +0.282 C 
ENDBRANCH  19  21
ENDBRANCH  17  19
ENDBRANCH   1  13
TORSDOF 7
ENDMDL
