MODEL 1
REMARK VINA RESULT:    -7.318      0.000      0.000
REMARK INTER + INTRA:         -12.842
REMARK INTER:                 -10.312
REMARK INTRA:                  -2.529
REMARK UNBOUND:                -2.529
REMARK SMILES COC(=O)c1cccc(CC[N@@H+](C)Cc2ccccc2)c1
REMARK SMILES IDX 10 1 11 2 12 3 13 4 14 6 15 7 16 8 20 9 17 10 19 11 18 12
REMARK SMILES IDX 9 13 8 14 21 15 7 16 5 17 6 18 3 19 4 20 2 21 1 22
REMARK H PARENT 12 5
REMARK INDEX MAP 4 1 3 2 2 3 1 4 25 5 15 6 16 7 17 8 21 9 18 10 20 11 19 12
REMARK INDEX MAP 5 13 6 14 10 15 7 16 9 17 8 18 11 19 12 20 13 21 14 22
ROOT
ATOM      1  C   UNL     1     136.161 121.871 125.349  1.00  0.00    +0.097 C 
ENDROOT
BRANCH   1   2
ATOM      2  C   UNL     1     135.229 122.056 126.556  1.00  0.00    +0.267 C 
BRANCH   2   3
ATOM      3  N   UNL     1     133.766 122.097 126.150  1.00  0.00    -0.333 N 
ATOM      4  C   UNL     1     132.957 120.980 126.750  1.00  0.00    +0.333 C 
ATOM      5  H   UNL     1     133.725 121.976 125.130  1.00  0.00    +0.348 HD
BRANCH   3   6
ATOM      6  C   UNL     1     133.148 123.457 126.410  1.00  0.00    +0.298 C 
BRANCH   6   7
ATOM      7  C   UNL     1     132.802 124.194 125.145  1.00  0.00    +0.006 A 
ATOM      8  C   UNL     1     132.925 125.593 125.081  1.00  0.00    +0.009 A 
ATOM      9  C   UNL     1     132.370 123.498 124.006  1.00  0.00    +0.009 A 
ATOM     10  C   UNL     1     132.629 126.275 123.901  1.00  0.00    +0.001 A 
ATOM     11  C   UNL     1     132.076 124.185 122.828  1.00  0.00    +0.001 A 
ATOM     12  C   UNL     1     132.208 125.571 122.776  1.00  0.00    +0.000 A 
ENDBRANCH   6   7
ENDBRANCH   3   6
ENDBRANCH   2   3
ENDBRANCH   1   2
BRANCH   1  13
ATOM     13  C   UNL     1     136.094 123.018 124.367  1.00  0.00    -0.042 A 
ATOM     14  C   UNL     1     136.430 124.317 124.771  1.00  0.00    +0.004 A 
ATOM     15  C   UNL     1     135.715 122.794 123.032  1.00  0.00    +0.019 A 
ATOM     16  C   UNL     1     136.410 125.370 123.856  1.00  0.00    +0.001 A 
ATOM     17  C   UNL     1     135.694 123.851 122.108  1.00  0.00    +0.060 A 
ATOM     18  C   UNL     1     136.049 125.138 122.529  1.00  0.00    +0.016 A 
BRANCH  17  19
ATOM     19  C   UNL     1     135.315 123.659 120.681  1.00  0.00    +0.337 C 
ATOM     20  O   UNL     1     135.640 122.683 120.026  1.00  0.00    -0.246 OA
BRANCH  19  21
ATOM     21  O   UNL     1     134.557 124.697 120.246  1.00  0.00    -0.465 OA
ATOM     22  C   UNL     1     134.535 124.836 118.822  1.00  0.00    +0.282 C 
ENDBRANCH  19  21
ENDBRANCH  17  19
ENDBRANCH   1  13
TORSDOF 7
ENDMDL
MODEL 2
REMARK VINA RESULT:    -7.178      2.057      4.460
REMARK INTER + INTRA:         -12.644
REMARK INTER:                 -11.946
REMARK INTRA:                  -0.698
REMARK UNBOUND:                -2.529
REMARK SMILES COC(=O)c1cccc(CC[N@@H+](C)Cc2ccccc2)c1
REMARK SMILES IDX 10 1 11 2 12 3 13 4 14 6 15 7 16 8 20 9 17 10 19 11 18 12
REMARK SMILES IDX 9 13 8 14 21 15 7 16 5 17 6 18 3 19 4 20 2 21 1 22
REMARK H PARENT 12 5
REMARK INDEX MAP 4 1 3 2 2 3 1 4 25 5 15 6 16 7 17 8 21 9 18 10 20 11 19 12
REMARK INDEX MAP 5 13 6 14 10 15 7 16 9 17 8 18 11 19 12 20 13 21 14 22
ROOT
ATOM      1  C   UNL     1     134.613 126.605 121.677  1.00  0.00    +0.097 C 
ENDROOT
BRANCH   1   2
ATOM      2  C   UNL     1     133.826 126.234 122.944  1.00  0.00    +0.267 C 
BRANCH   2   3
ATOM      3  N   UNL     1     134.732 125.722 124.052  1.00  0.00    -0.333 N 
ATOM      4  C   UNL     1     135.638 126.784 124.610  1.00  0.00    +0.333 C 
ATOM      5  H   UNL     1     135.340 125.000 123.644  1.00  0.00    +0.348 HD
BRANCH   3   6
ATOM      6  C   UNL     1     133.946 125.009 125.135  1.00  0.00    +0.298 C 
BRANCH   6   7
ATOM      7  C   UNL     1     134.454 123.620 125.410  1.00  0.00    +0.006 A 
ATOM      8  C   UNL     1     134.784 122.761 124.348  1.00  0.00    +0.009 A 
ATOM      9  C   UNL     1     134.624 123.168 126.727  1.00  0.00    +0.009 A 
ATOM     10  C   UNL     1     135.280 121.482 124.602  1.00  0.00    +0.001 A 
ATOM     11  C   UNL     1     135.121 121.888 126.976  1.00  0.00    +0.001 A 
ATOM     12  C   UNL     1     135.450 121.048 125.914  1.00  0.00    +0.000 A 
ENDBRANCH   6   7
ENDBRANCH   3   6
ENDBRANCH   2   3
ENDBRANCH   1   2
BRANCH   1  13
ATOM     13  C   UNL     1     135.033 125.400 120.867  1.00  0.00    -0.042 A 
ATOM     14  C   UNL     1     135.992 124.509 121.367  1.00  0.00    +0.004 A 
ATOM     15  C   UNL     1     134.453 125.146 119.612  1.00  0.00    +0.019 A 
ATOM     16  C   UNL     1     136.349 123.373 120.640  1.00  0.00    +0.001 A 
ATOM     17  C   UNL     1     134.809 124.004 118.877  1.00  0.00    +0.060 A 
ATOM     18  C   UNL     1     135.757 123.118 119.403  1.00  0.00    +0.016 A 
BRANCH  17  19
ATOM     19  C   UNL     1     134.210 123.685 117.552  1.00  0.00    +0.337 C 
ATOM     20  O   UNL     1     133.501 124.460 116.932  1.00  0.00    -0.246 OA
BRANCH  19  21
ATOM     21  O   UNL     1     134.583 122.446 117.146  1.00  0.00    -0.465 OA
ATOM     22  C   UNL     1     135.038 122.397 115.790  1.00  0.00    +0.282 C 
ENDBRANCH  19  21
ENDBRANCH  17  19
ENDBRANCH   1  13
TORSDOF 7
ENDMDL
MODEL 3
REMARK VINA RESULT:    -7.166      3.083      6.076
REMARK INTER + INTRA:         -12.628
REMARK INTER:                 -10.462
REMARK INTRA:                  -2.165
REMARK UNBOUND:                -2.529
REMARK SMILES COC(=O)c1cccc(CC[N@@H+](C)Cc2ccccc2)c1
REMARK SMILES IDX 10 1 11 2 12 3 13 4 14 6 15 7 16 8 20 9 17 10 19 11 18 12
REMARK SMILES IDX 9 13 8 14 21 15 7 16 5 17 6 18 3 19 4 20 2 21 1 22
REMARK H PARENT 12 5
REMARK INDEX MAP 4 1 3 2 2 3 1 4 25 5 15 6 16 7 17 8 21 9 18 10 20 11 19 12
REMARK INDEX MAP 5 13 6 14 10 15 7 16 9 17 8 18 11 19 12 20 13 21 14 22
ROOT
ATOM      1  C   UNL     1     132.709 124.620 122.288  1.00  0.00    +0.097 C 
ENDROOT
BRANCH   1   2
ATOM      2  C   UNL     1     134.214 124.901 122.152  1.00  0.00    +0.267 C 
BRANCH   2   3
ATOM      3  N   UNL     1     135.033 123.622 122.093  1.00  0.00    -0.333 N 
ATOM      4  C   UNL     1     135.579 123.335 120.721  1.00  0.00    +0.333 C 
ATOM      5  H   UNL     1     134.405 122.843 122.329  1.00  0.00    +0.348 HD
BRANCH   3   6
ATOM      6  C   UNL     1     136.112 123.595 123.158  1.00  0.00    +0.298 C 
BRANCH   6   7
ATOM      7  C   UNL     1     135.631 123.026 124.465  1.00  0.00    +0.006 A 
ATOM      8  C   UNL     1     135.340 121.656 124.579  1.00  0.00    +0.009 A 
ATOM      9  C   UNL     1     135.484 123.848 125.592  1.00  0.00    +0.009 A 
ATOM     10  C   UNL     1     134.918 121.123 125.798  1.00  0.00    +0.001 A 
ATOM     11  C   UNL     1     135.062 123.310 126.809  1.00  0.00    +0.001 A 
ATOM     12  C   UNL     1     134.783 121.949 126.911  1.00  0.00    +0.000 A 
ENDBRANCH   6   7
ENDBRANCH   3   6
ENDBRANCH   2   3
ENDBRANCH   1   2
BRANCH   1  13
ATOM     13  C   UNL     1     132.242 124.576 123.725  1.00  0.00    -0.042 A 
ATOM     14  C   UNL     1     131.967 123.349 124.343  1.00  0.00    +0.004 A 
ATOM     15  C   UNL     1     132.099 125.762 124.466  1.00  0.00    +0.019 A 
ATOM     16  C   UNL     1     131.577 123.304 125.682  1.00  0.00    +0.001 A 
ATOM     17  C   UNL     1     131.708 125.720 125.813  1.00  0.00    +0.060 A 
ATOM     18  C   UNL     1     131.453 124.483 126.416  1.00  0.00    +0.016 A 
BRANCH  17  19
ATOM     19  C   UNL     1     131.559 126.949 126.642  1.00  0.00    +0.337 C 
ATOM     20  O   UNL     1     132.236 127.951 126.484  1.00  0.00    -0.246 OA
BRANCH  19  21
ATOM     21  O   UNL     1     130.569 126.790 127.555  1.00  0.00    -0.465 OA
ATOM     22  C   UNL     1     129.591 127.834 127.532  1.00  0.00    +0.282 C 
ENDBRANCH  19  21
ENDBRANCH  17  19
ENDBRANCH   1  13
TORSDOF 7
ENDMDL
MODEL 4
REMARK VINA RESULT:    -7.151      1.668      2.911
REMARK INTER + INTRA:         -12.606
REMARK INTER:                 -10.019
REMARK INTRA:                  -2.587
REMARK UNBOUND:                -2.529
REMARK SMILES COC(=O)c1cccc(CC[N@@H+](C)Cc2ccccc2)c1
REMARK SMILES IDX 10 1 11 2 12 3 13 4 14 6 15 7 16 8 20 9 17 10 19 11 18 12
REMARK SMILES IDX 9 13 8 14 21 15 7 16 5 17 6 18 3 19 4 20 2 21 1 22
REMARK H PARENT 12 5
REMARK INDEX MAP 4 1 3 2 2 3 1 4 25 5 15 6 16 7 17 8 21 9 18 10 20 11 19 12
REMARK INDEX MAP 5 13 6 14 10 15 7 16 9 17 8 18 11 19 12 20 13 21 14 22
ROOT
ATOM      1  C   UNL     1     135.749 121.644 124.840  1.00  0.00    +0.097 C 
ENDROOT
BRANCH   1   2
ATOM      2  C   UNL     1     135.052 122.087 126.136  1.00  0.00    +0.267 C 
BRANCH   2   3
ATOM      3  N   UNL     1     133.538 122.052 126.013  1.00  0.00    -0.333 N 
ATOM      4  C   UNL     1     132.908 120.935 126.800  1.00  0.00    +0.333 C 
ATOM      5  H   UNL     1     133.312 121.880 125.025  1.00  0.00    +0.348 HD
BRANCH   3   6
ATOM      6  C   UNL     1     132.917 123.398 126.330  1.00  0.00    +0.298 C 
BRANCH   6   7
ATOM      7  C   UNL     1     132.682 124.238 125.105  1.00  0.00    +0.006 A 
ATOM      8  C   UNL     1     132.232 123.645 123.913  1.00  0.00    +0.009 A 
ATOM      9  C   UNL     1     132.889 125.625 125.137  1.00  0.00    +0.009 A 
ATOM     10  C   UNL     1     131.989 124.427 122.783  1.00  0.00    +0.001 A 
ATOM     11  C   UNL     1     132.643 126.403 124.005  1.00  0.00    +0.001 A 
ATOM     12  C   UNL     1     132.192 125.804 122.831  1.00  0.00    +0.000 A 
ENDBRANCH   6   7
ENDBRANCH   3   6
ENDBRANCH   2   3
ENDBRANCH   1   2
BRANCH   1  13
ATOM     13  C   UNL     1     135.715 122.700 123.759  1.00  0.00    -0.042 A 
ATOM     14  C   UNL     1     135.329 122.366 122.454  1.00  0.00    +0.004 A 
ATOM     15  C   UNL     1     136.048 124.033 124.053  1.00  0.00    +0.019 A 
ATOM     16  C   UNL     1     135.255 123.347 121.465  1.00  0.00    +0.001 A 
ATOM     17  C   UNL     1     135.975 125.024 123.060  1.00  0.00    +0.060 A 
ATOM     18  C   UNL     1     135.571 124.671 121.767  1.00  0.00    +0.016 A 
BRANCH  17  19
ATOM     19  C   UNL     1     136.303 126.451 123.328  1.00  0.00    +0.337 C 
ATOM     20  O   UNL     1     136.039 127.357 122.556  1.00  0.00    -0.246 OA
BRANCH  19  21
ATOM     21  O   UNL     1     136.902 126.583 124.538  1.00  0.00    -0.465 OA
ATOM     22  C   UNL     1     136.496 127.751 125.257  1.00  0.00    +0.282 C 
ENDBRANCH  19  21
ENDBRANCH  17  19
ENDBRANCH   1  13
TORSDOF 7
ENDMDL
MODEL 5
REMARK VINA RESULT:    -7.098      1.668      3.890
REMARK INTER + INTRA:         -12.532
REMARK INTER:                 -11.174
REMARK INTRA:                  -1.358
REMARK UNBOUND:                -2.529
REMARK SMILES COC(=O)c1cccc(CC[N@@H+](C)Cc2ccccc2)c1
REMARK SMILES IDX 10 1 11 2 12 3 13 4 14 6 15 7 16 8 20 9 17 10 19 11 18 12
REMARK SMILES IDX 9 13 8 14 21 15 7 16 5 17 6 18 3 19 4 20 2 21 1 22
REMARK H PARENT 12 5
REMARK INDEX MAP 4 1 3 2 2 3 1 4 25 5 15 6 16 7 17 8 21 9 18 10 20 11 19 12
REMARK INDEX MAP 5 13 6 14 10 15 7 16 9 17 8 18 11 19 12 20 13 21 14 22
ROOT
ATOM      1  C   UNL     1     133.428 125.920 123.103  1.00  0.00    +0.097 C 
ENDROOT
BRANCH   1   2
ATOM      2  C   UNL     1     132.547 125.130 124.083  1.00  0.00    +0.267 C 
BRANCH   2   3
ATOM      3  N   UNL     1     132.850 125.474 125.532  1.00  0.00    -0.333 N 
ATOM      4  C   UNL     1     132.001 126.598 126.060  1.00  0.00    +0.333 C 
ATOM      5  H   UNL     1     133.825 125.795 125.575  1.00  0.00    +0.348 HD
BRANCH   3   6
ATOM      6  C   UNL     1     132.799 124.248 126.423  1.00  0.00    +0.298 C 
BRANCH   6   7
ATOM      7  C   UNL     1     133.894 123.261 126.124  1.00  0.00    +0.006 A 
ATOM      8  C   UNL     1     133.581 121.970 125.665  1.00  0.00    +0.009 A 
ATOM      9  C   UNL     1     135.242 123.619 126.280  1.00  0.00    +0.009 A 
ATOM     10  C   UNL     1     134.597 121.063 125.363  1.00  0.00    +0.001 A 
ATOM     11  C   UNL     1     136.254 122.707 125.976  1.00  0.00    +0.001 A 
ATOM     12  C   UNL     1     135.931 121.432 125.516  1.00  0.00    +0.000 A 
ENDBRANCH   6   7
ENDBRANCH   3   6
ENDBRANCH   2   3
ENDBRANCH   1   2
BRANCH   1  13
ATOM     13  C   UNL     1     134.250 125.032 122.198  1.00  0.00    -0.042 A 
ATOM     14  C   UNL     1     135.135 124.092 122.742  1.00  0.00    +0.004 A 
ATOM     15  C   UNL     1     134.123 125.122 120.801  1.00  0.00    +0.019 A 
ATOM     16  C   UNL     1     135.863 123.242 121.909  1.00  0.00    +0.001 A 
ATOM     17  C   UNL     1     134.853 124.268 119.959  1.00  0.00    +0.060 A 
ATOM     18  C   UNL     1     135.720 123.325 120.524  1.00  0.00    +0.016 A 
BRANCH  17  19
ATOM     19  C   UNL     1     134.739 124.316 118.476  1.00  0.00    +0.337 C 
ATOM     20  O   UNL     1     134.210 125.235 117.873  1.00  0.00    -0.246 OA
BRANCH  19  21
ATOM     21  O   UNL     1     135.317 123.223 117.918  1.00  0.00    -0.465 OA
ATOM     22  C   UNL     1     134.702 122.808 116.694  1.00  0.00    +0.282 C 
ENDBRANCH  19  21
ENDBRANCH  17  19
ENDBRANCH   1  13
TORSDOF 7
ENDMDL
MODEL 6
REMARK VINA RESULT:    -6.365      2.355      4.539
REMARK INTER + INTRA:         -11.500
REMARK INTER:                 -10.637
REMARK INTRA:                  -0.863
REMARK UNBOUND:                -2.529
REMARK SMILES COC(=O)c1cccc(CC[N@@H+](C)Cc2ccccc2)c1
REMARK SMILES IDX 10 1 11 2 12 3 13 4 14 6 15 7 16 8 20 9 17 10 19 11 18 12
REMARK SMILES IDX 9 13 8 14 21 15 7 16 5 17 6 18 3 19 4 20 2 21 1 22
REMARK H PARENT 12 5
REMARK INDEX MAP 4 1 3 2 2 3 1 4 25 5 15 6 16 7 17 8 21 9 18 10 20 11 19 12
REMARK INDEX MAP 5 13 6 14 10 15 7 16 9 17 8 18 11 19 12 20 13 21 14 22
ROOT
ATOM      1  C   UNL     1     132.039 124.728 126.418  1.00  0.00    +0.097 C 
ENDROOT
BRANCH   1   2
ATOM      2  C   UNL     1     130.910 124.843 125.382  1.00  0.00    +0.267 C 
BRANCH   2   3
ATOM      3  N   UNL     1     131.262 125.797 124.253  1.00  0.00    -0.333 N 
ATOM      4  C   UNL     1     130.358 126.998 124.194  1.00  0.00    +0.333 C 
ATOM      5  H   UNL     1     131.135 125.289 123.369  1.00  0.00    +0.348 HD
BRANCH   3   6
ATOM      6  C   UNL     1     132.728 126.182 124.279  1.00  0.00    +0.298 C 
BRANCH   6   7
ATOM      7  C   UNL     1     133.415 125.962 122.959  1.00  0.00    +0.006 A 
ATOM      8  C   UNL     1     134.737 126.396 122.765  1.00  0.00    +0.009 A 
ATOM      9  C   UNL     1     132.755 125.305 121.910  1.00  0.00    +0.009 A 
ATOM     10  C   UNL     1     135.384 126.170 121.550  1.00  0.00    +0.001 A 
ATOM     11  C   UNL     1     133.407 125.080 120.697  1.00  0.00    +0.001 A 
ATOM     12  C   UNL     1     134.720 125.511 120.519  1.00  0.00    +0.000 A 
ENDBRANCH   6   7
ENDBRANCH   3   6
ENDBRANCH   2   3
ENDBRANCH   1   2
BRANCH   1  13
ATOM     13  C   UNL     1     132.873 123.479 126.248  1.00  0.00    -0.042 A 
ATOM     14  C   UNL     1     132.300 122.214 126.433  1.00  0.00    +0.004 A 
ATOM     15  C   UNL     1     134.227 123.568 125.881  1.00  0.00    +0.019 A 
ATOM     16  C   UNL     1     133.057 121.058 126.235  1.00  0.00    +0.001 A 
ATOM     17  C   UNL     1     134.992 122.408 125.680  1.00  0.00    +0.060 A 
ATOM     18  C   UNL     1     134.396 121.154 125.854  1.00  0.00    +0.016 A 
BRANCH  17  19
ATOM     19  C   UNL     1     136.425 122.454 125.275  1.00  0.00    +0.337 C 
ATOM     20  O   UNL     1     137.285 121.747 125.773  1.00  0.00    -0.246 OA
BRANCH  19  21
ATOM     21  O   UNL     1     136.610 123.360 124.284  1.00  0.00    -0.465 OA
ATOM     22  C   UNL     1     136.194 122.897 122.995  1.00  0.00    +0.282 C 
ENDBRANCH  19  21
ENDBRANCH  17  19
ENDBRANCH   1  13
TORSDOF 7
ENDMDL
MODEL 7
REMARK VINA RESULT:    -6.355      3.443      4.936
REMARK INTER + INTRA:         -11.486
REMARK INTER:                 -11.017
REMARK INTRA:                  -0.468
REMARK UNBOUND:                -2.529
REMARK SMILES COC(=O)c1cccc(CC[N@@H+](C)Cc2ccccc2)c1
REMARK SMILES IDX 10 1 11 2 12 3 13 4 14 6 15 7 16 8 20 9 17 10 19 11 18 12
REMARK SMILES IDX 9 13 8 14 21 15 7 16 5 17 6 18 3 19 4 20 2 21 1 22
REMARK H PARENT 12 5
REMARK INDEX MAP 4 1 3 2 2 3 1 4 25 5 15 6 16 7 17 8 21 9 18 10 20 11 19 12
REMARK INDEX MAP 5 13 6 14 10 15 7 16 9 17 8 18 11 19 12 20 13 21 14 22
ROOT
ATOM      1  C   UNL     1     131.512 124.738 126.380  1.00  0.00    +0.097 C 
ENDROOT
BRANCH   1   2
ATOM      2  C   UNL     1     130.044 124.363 126.120  1.00  0.00    +0.267 C 
BRANCH   2   3
ATOM      3  N   UNL     1     129.198 125.573 125.764  1.00  0.00    -0.333 N 
ATOM      4  C   UNL     1     128.274 125.994 126.873  1.00  0.00    +0.333 C 
ATOM      5  H   UNL     1     128.603 125.310 124.968  1.00  0.00    +0.348 HD
BRANCH   3   6
ATOM      6  C   UNL     1     130.047 126.723 125.256  1.00  0.00    +0.298 C 
BRANCH   6   7
ATOM      7  C   UNL     1     129.330 127.581 124.250  1.00  0.00    +0.006 A 
ATOM      8  C   UNL     1     129.750 128.901 124.014  1.00  0.00    +0.009 A 
ATOM      9  C   UNL     1     128.245 127.073 123.520  1.00  0.00    +0.009 A 
ATOM     10  C   UNL     1     129.101 129.689 123.062  1.00  0.00    +0.001 A 
ATOM     11  C   UNL     1     127.600 127.865 122.570  1.00  0.00    +0.001 A 
ATOM     12  C   UNL     1     128.030 129.170 122.340  1.00  0.00    +0.000 A 
ENDBRANCH   6   7
ENDBRANCH   3   6
ENDBRANCH   2   3
ENDBRANCH   1   2
BRANCH   1  13
ATOM     13  C   UNL     1     132.473 123.608 126.087  1.00  0.00    -0.042 A 
ATOM     14  C   UNL     1     132.206 122.313 126.550  1.00  0.00    +0.004 A 
ATOM     15  C   UNL     1     133.633 123.837 125.328  1.00  0.00    +0.019 A 
ATOM     16  C   UNL     1     133.069 121.261 126.243  1.00  0.00    +0.001 A 
ATOM     17  C   UNL     1     134.504 122.781 125.017  1.00  0.00    +0.060 A 
ATOM     18  C   UNL     1     134.210 121.492 125.476  1.00  0.00    +0.016 A 
BRANCH  17  19
ATOM     19  C   UNL     1     135.737 122.973 124.204  1.00  0.00    +0.337 C 
ATOM     20  O   UNL     1     136.819 122.494 124.501  1.00  0.00    -0.246 OA
BRANCH  19  21
ATOM     21  O   UNL     1     135.470 123.720 123.104  1.00  0.00    -0.465 OA
ATOM     22  C   UNL     1     135.958 123.149 121.887  1.00  0.00    +0.282 C 
ENDBRANCH  19  21
ENDBRANCH  17  19
ENDBRANCH   1  13
TORSDOF 7
ENDMDL
MODEL 8
REMARK VINA RESULT:    -6.303      2.796      4.512
REMARK INTER + INTRA:         -11.412
REMARK INTER:                 -10.934
REMARK INTRA:                  -0.477
REMARK UNBOUND:                -2.529
REMARK SMILES COC(=O)c1cccc(CC[N@@H+](C)Cc2ccccc2)c1
REMARK SMILES IDX 10 1 11 2 12 3 13 4 14 6 15 7 16 8 20 9 17 10 19 11 18 12
REMARK SMILES IDX 9 13 8 14 21 15 7 16 5 17 6 18 3 19 4 20 2 21 1 22
REMARK H PARENT 12 5
REMARK INDEX MAP 4 1 3 2 2 3 1 4 25 5 15 6 16 7 17 8 21 9 18 10 20 11 19 12
REMARK INDEX MAP 5 13 6 14 10 15 7 16 9 17 8 18 11 19 12 20 13 21 14 22
ROOT
ATOM      1  C   UNL     1     133.421 125.957 122.113  1.00  0.00    +0.097 C 
ENDROOT
BRANCH   1   2
ATOM      2  C   UNL     1     132.278 125.224 122.831  1.00  0.00    +0.267 C 
BRANCH   2   3
ATOM      3  N   UNL     1     132.196 125.590 124.303  1.00  0.00    -0.333 N 
ATOM      4  C   UNL     1     133.541 125.872 124.916  1.00  0.00    +0.333 C 
ATOM      5  H   UNL     1     131.808 124.780 124.802  1.00  0.00    +0.348 HD
BRANCH   3   6
ATOM      6  C   UNL     1     131.206 126.713 124.549  1.00  0.00    +0.298 C 
BRANCH   6   7
ATOM      7  C   UNL     1     130.602 126.671 125.925  1.00  0.00    +0.006 A 
ATOM      8  C   UNL     1     129.967 125.505 126.387  1.00  0.00    +0.009 A 
ATOM      9  C   UNL     1     130.678 127.784 126.775  1.00  0.00    +0.009 A 
ATOM     10  C   UNL     1     129.428 125.456 127.673  1.00  0.00    +0.001 A 
ATOM     11  C   UNL     1     130.138 127.730 128.061  1.00  0.00    +0.001 A 
ATOM     12  C   UNL     1     129.516 126.566 128.509  1.00  0.00    +0.000 A 
ENDBRANCH   6   7
ENDBRANCH   3   6
ENDBRANCH   2   3
ENDBRANCH   1   2
BRANCH   1  13
ATOM     13  C   UNL     1     134.244 125.049 121.229  1.00  0.00    -0.042 A 
ATOM     14  C   UNL     1     135.248 124.242 121.780  1.00  0.00    +0.004 A 
ATOM     15  C   UNL     1     133.999 124.986 119.846  1.00  0.00    +0.019 A 
ATOM     16  C   UNL     1     135.979 123.371 120.972  1.00  0.00    +0.001 A 
ATOM     17  C   UNL     1     134.733 124.111 119.029  1.00  0.00    +0.060 A 
ATOM     18  C   UNL     1     135.720 123.301 119.603  1.00  0.00    +0.016 A 
BRANCH  17  19
ATOM     19  C   UNL     1     134.498 123.998 117.563  1.00  0.00    +0.337 C 
ATOM     20  O   UNL     1     133.533 124.485 116.999  1.00  0.00    -0.246 OA
BRANCH  19  21
ATOM     21  O   UNL     1     135.505 123.309 116.971  1.00  0.00    -0.465 OA
ATOM     22  C   UNL     1     135.056 122.272 116.094  1.00  0.00    +0.282 C 
ENDBRANCH  19  21
ENDBRANCH  17  19
ENDBRANCH   1  13
TORSDOF 7
ENDMDL
MODEL 9
REMARK VINA RESULT:    -6.300      3.202      5.933
REMARK INTER + INTRA:         -11.408
REMARK INTER:                 -10.638
REMARK INTRA:                  -0.770
REMARK UNBOUND:                -2.529
REMARK SMILES COC(=O)c1cccc(CC[N@@H+](C)Cc2ccccc2)c1
REMARK SMILES IDX 10 1 11 2 12 3 13 4 14 6 15 7 16 8 20 9 17 10 19 11 18 12
REMARK SMILES IDX 9 13 8 14 21 15 7 16 5 17 6 18 3 19 4 20 2 21 1 22
REMARK H PARENT 12 5
REMARK INDEX MAP 4 1 3 2 2 3 1 4 25 5 15 6 16 7 17 8 21 9 18 10 20 11 19 12
REMARK INDEX MAP 5 13 6 14 10 15 7 16 9 17 8 18 11 19 12 20 13 21 14 22
ROOT
ATOM      1  C   UNL     1     133.197 123.180 124.599  1.00  0.00    +0.097 C 
ENDROOT
BRANCH   1   2
ATOM      2  C   UNL     1     134.644 123.355 125.085  1.00  0.00    +0.267 C 
BRANCH   2   3
ATOM      3  N   UNL     1     135.474 124.191 124.125  1.00  0.00    -0.333 N 
ATOM      4  C   UNL     1     136.614 124.904 124.800  1.00  0.00    +0.333 C 
ATOM      5  H   UNL     1     134.859 124.917 123.738  1.00  0.00    +0.348 HD
BRANCH   3   6
ATOM      6  C   UNL     1     135.931 123.382 122.927  1.00  0.00    +0.298 C 
BRANCH   6   7
ATOM      7  C   UNL     1     135.402 123.915 121.624  1.00  0.00    +0.006 A 
ATOM      8  C   UNL     1     134.585 125.058 121.603  1.00  0.00    +0.009 A 
ATOM      9  C   UNL     1     135.728 123.291 120.411  1.00  0.00    +0.009 A 
ATOM     10  C   UNL     1     134.115 125.568 120.393  1.00  0.00    +0.001 A 
ATOM     11  C   UNL     1     135.255 123.805 119.202  1.00  0.00    +0.001 A 
ATOM     12  C   UNL     1     134.452 124.944 119.195  1.00  0.00    +0.000 A 
ENDBRANCH   6   7
ENDBRANCH   3   6
ENDBRANCH   2   3
ENDBRANCH   1   2
BRANCH   1  13
ATOM     13  C   UNL     1     132.185 123.855 125.496  1.00  0.00    -0.042 A 
ATOM     14  C   UNL     1     131.330 123.090 126.300  1.00  0.00    +0.004 A 
ATOM     15  C   UNL     1     132.103 125.257 125.551  1.00  0.00    +0.019 A 
ATOM     16  C   UNL     1     130.425 123.711 127.161  1.00  0.00    +0.001 A 
ATOM     17  C   UNL     1     131.193 125.886 126.416  1.00  0.00    +0.060 A 
ATOM     18  C   UNL     1     130.360 125.103 127.223  1.00  0.00    +0.016 A 
BRANCH  17  19
ATOM     19  C   UNL     1     131.082 127.367 126.521  1.00  0.00    +0.337 C 
ATOM     20  O   UNL     1     131.887 128.060 127.119  1.00  0.00    -0.246 OA
BRANCH  19  21
ATOM     21  O   UNL     1     129.991 127.811 125.848  1.00  0.00    -0.465 OA
ATOM     22  C   UNL     1     129.162 128.692 126.612  1.00  0.00    +0.282 C 
ENDBRANCH  19  21
ENDBRANCH  17  19
ENDBRANCH   1  13
TORSDOF 7
ENDMDL
MODEL 10
REMARK VINA RESULT:    -6.295      3.955      6.774
REMARK INTER + INTRA:         -11.400
REMARK INTER:                 -10.422
REMARK INTRA:                  -0.978
REMARK UNBOUND:                -2.529
REMARK SMILES COC(=O)c1cccc(CC[N@@H+](C)Cc2ccccc2)c1
REMARK SMILES IDX 10 1 11 2 12 3 13 4 14 6 15 7 16 8 20 9 17 10 19 11 18 12
REMARK SMILES IDX 9 13 8 14 21 15 7 16 5 17 6 18 3 19 4 20 2 21 1 22
REMARK H PARENT 12 5
REMARK INDEX MAP 4 1 3 2 2 3 1 4 25 5 15 6 16 7 17 8 21 9 18 10 20 11 19 12
REMARK INDEX MAP 5 13 6 14 10 15 7 16 9 17 8 18 11 19 12 20 13 21 14 22
ROOT
ATOM      1  C   UNL     1     133.445 126.022 124.928  1.00  0.00    +0.097 C 
ENDROOT
BRANCH   1   2
ATOM      2  C   UNL     1     134.068 125.079 123.886  1.00  0.00    +0.267 C 
BRANCH   2   3
ATOM      3  N   UNL     1     135.550 125.346 123.685  1.00  0.00    -0.333 N 
ATOM      4  C   UNL     1     135.860 126.798 123.442  1.00  0.00    +0.333 C 
ATOM      5  H   UNL     1     135.843 124.836 122.841  1.00  0.00    +0.348 HD
BRANCH   3   6
ATOM      6  C   UNL     1     136.384 124.761 124.808  1.00  0.00    +0.298 C 
BRANCH   6   7
ATOM      7  C   UNL     1     135.827 123.468 125.338  1.00  0.00    +0.006 A 
ATOM      8  C   UNL     1     135.431 123.363 126.682  1.00  0.00    +0.009 A 
ATOM      9  C   UNL     1     135.678 122.355 124.497  1.00  0.00    +0.009 A 
ATOM     10  C   UNL     1     134.890 122.172 127.169  1.00  0.00    +0.001 A 
ATOM     11  C   UNL     1     135.137 121.166 124.989  1.00  0.00    +0.001 A 
ATOM     12  C   UNL     1     134.742 121.077 126.322  1.00  0.00    +0.000 A 
ENDBRANCH   6   7
ENDBRANCH   3   6
ENDBRANCH   2   3
ENDBRANCH   1   2
BRANCH   1  13
ATOM     13  C   UNL     1     132.295 125.395 125.682  1.00  0.00    -0.042 A 
ATOM     14  C   UNL     1     132.108 124.006 125.662  1.00  0.00    +0.004 A 
ATOM     15  C   UNL     1     131.412 126.192 126.430  1.00  0.00    +0.019 A 
ATOM     16  C   UNL     1     131.074 123.421 126.392  1.00  0.00    +0.001 A 
ATOM     17  C   UNL     1     130.370 125.607 127.167  1.00  0.00    +0.060 A 
ATOM     18  C   UNL     1     130.211 124.217 127.146  1.00  0.00    +0.016 A 
BRANCH  17  19
ATOM     19  C   UNL     1     129.420 126.410 127.986  1.00  0.00    +0.337 C 
ATOM     20  O   UNL     1     129.728 126.947 129.036  1.00  0.00    -0.246 OA
BRANCH  19  21
ATOM     21  O   UNL     1     128.204 126.465 127.388  1.00  0.00    -0.465 OA
ATOM     22  C   UNL     1     127.152 125.890 128.168  1.00  0.00    +0.282 C 
ENDBRANCH  19  21
ENDBRANCH  17  19
ENDBRANCH   1  13
TORSDOF 7
ENDMDL
MODEL 11
REMARK VINA RESULT:    -6.288      2.940      4.344
REMARK INTER + INTRA:         -11.391
REMARK INTER:                 -11.074
REMARK INTRA:                  -0.318
REMARK UNBOUND:                -2.529
REMARK SMILES COC(=O)c1cccc(CC[N@@H+](C)Cc2ccccc2)c1
REMARK SMILES IDX 10 1 11 2 12 3 13 4 14 6 15 7 16 8 20 9 17 10 19 11 18 12
REMARK SMILES IDX 9 13 8 14 21 15 7 16 5 17 6 18 3 19 4 20 2 21 1 22
REMARK H PARENT 12 5
REMARK INDEX MAP 4 1 3 2 2 3 1 4 25 5 15 6 16 7 17 8 21 9 18 10 20 11 19 12
REMARK INDEX MAP 5 13 6 14 10 15 7 16 9 17 8 18 11 19 12 20 13 21 14 22
ROOT
ATOM      1  C   UNL     1     132.844 126.392 122.901  1.00  0.00    +0.097 C 
ENDROOT
BRANCH   1   2
ATOM      2  C   UNL     1     131.494 125.805 123.341  1.00  0.00    +0.267 C 
BRANCH   2   3
ATOM      3  N   UNL     1     131.340 125.789 124.852  1.00  0.00    -0.333 N 
ATOM      4  C   UNL     1     132.439 126.530 125.564  1.00  0.00    +0.333 C 
ATOM      5  H   UNL     1     131.399 124.810 125.158  1.00  0.00    +0.348 HD
BRANCH   3   6
ATOM      6  C   UNL     1     129.962 126.254 125.282  1.00  0.00    +0.298 C 
BRANCH   6   7
ATOM      7  C   UNL     1     129.393 127.314 124.379  1.00  0.00    +0.006 A 
ATOM      8  C   UNL     1     129.973 128.593 124.331  1.00  0.00    +0.009 A 
ATOM      9  C   UNL     1     128.289 127.038 123.559  1.00  0.00    +0.009 A 
ATOM     10  C   UNL     1     129.462 129.569 123.474  1.00  0.00    +0.001 A 
ATOM     11  C   UNL     1     127.782 128.017 122.704  1.00  0.00    +0.001 A 
ATOM     12  C   UNL     1     128.370 129.279 122.661  1.00  0.00    +0.000 A 
ENDBRANCH   6   7
ENDBRANCH   3   6
ENDBRANCH   2   3
ENDBRANCH   1   2
BRANCH   1  13
ATOM     13  C   UNL     1     133.701 125.404 122.144  1.00  0.00    -0.042 A 
ATOM     14  C   UNL     1     134.425 124.421 122.833  1.00  0.00    +0.004 A 
ATOM     15  C   UNL     1     133.766 125.443 120.741  1.00  0.00    +0.019 A 
ATOM     16  C   UNL     1     135.182 123.481 122.134  1.00  0.00    +0.001 A 
ATOM     17  C   UNL     1     134.527 124.498 120.034  1.00  0.00    +0.060 A 
ATOM     18  C   UNL     1     135.230 123.515 120.740  1.00  0.00    +0.016 A 
BRANCH  17  19
ATOM     19  C   UNL     1     134.613 124.491 118.547  1.00  0.00    +0.337 C 
ATOM     20  O   UNL     1     134.215 125.407 117.847  1.00  0.00    -0.246 OA
BRANCH  19  21
ATOM     21  O   UNL     1     135.206 123.352 118.110  1.00  0.00    -0.465 OA
ATOM     22  C   UNL     1     134.583 122.786 116.954  1.00  0.00    +0.282 C 
ENDBRANCH  19  21
ENDBRANCH  17  19
ENDBRANCH   1  13
TORSDOF 7
ENDMDL
MODEL 12
REMARK VINA RESULT:    -6.177      1.544      3.357
REMARK INTER + INTRA:         -11.235
REMARK INTER:                 -10.166
REMARK INTRA:                  -1.069
REMARK UNBOUND:                -2.529
REMARK SMILES COC(=O)c1cccc(CC[N@@H+](C)Cc2ccccc2)c1
REMARK SMILES IDX 10 1 11 2 12 3 13 4 14 6 15 7 16 8 20 9 17 10 19 11 18 12
REMARK SMILES IDX 9 13 8 14 21 15 7 16 5 17 6 18 3 19 4 20 2 21 1 22
REMARK H PARENT 12 5
REMARK INDEX MAP 4 1 3 2 2 3 1 4 25 5 15 6 16 7 17 8 21 9 18 10 20 11 19 12
REMARK INDEX MAP 5 13 6 14 10 15 7 16 9 17 8 18 11 19 12 20 13 21 14 22
ROOT
ATOM      1  C   UNL     1     133.651 125.258 125.416  1.00  0.00    +0.097 C 
ENDROOT
BRANCH   1   2
ATOM      2  C   UNL     1     132.397 124.453 125.038  1.00  0.00    +0.267 C 
BRANCH   2   3
ATOM      3  N   UNL     1     131.928 123.556 126.171  1.00  0.00    -0.333 N 
ATOM      4  C   UNL     1     130.459 123.695 126.462  1.00  0.00    +0.333 C 
ATOM      5  H   UNL     1     132.426 123.847 127.021  1.00  0.00    +0.348 HD
BRANCH   3   6
ATOM      6  C   UNL     1     132.336 122.112 125.950  1.00  0.00    +0.298 C 
BRANCH   6   7
ATOM      7  C   UNL     1     133.825 121.908 126.019  1.00  0.00    +0.006 A 
ATOM      8  C   UNL     1     134.489 121.930 127.257  1.00  0.00    +0.009 A 
ATOM      9  C   UNL     1     134.569 121.674 124.853  1.00  0.00    +0.009 A 
ATOM     10  C   UNL     1     135.866 121.715 127.324  1.00  0.00    +0.001 A 
ATOM     11  C   UNL     1     135.947 121.459 124.926  1.00  0.00    +0.001 A 
ATOM     12  C   UNL     1     136.592 121.477 126.160  1.00  0.00    +0.000 A 
ENDBRANCH   6   7
ENDBRANCH   3   6
ENDBRANCH   2   3
ENDBRANCH   1   2
BRANCH   1  13
ATOM     13  C   UNL     1     134.554 125.537 124.237  1.00  0.00    -0.042 A 
ATOM     14  C   UNL     1     135.531 126.538 124.314  1.00  0.00    +0.004 A 
ATOM     15  C   UNL     1     134.440 124.782 123.056  1.00  0.00    +0.019 A 
ATOM     16  C   UNL     1     136.394 126.768 123.242  1.00  0.00    +0.001 A 
ATOM     17  C   UNL     1     135.307 125.010 121.975  1.00  0.00    +0.060 A 
ATOM     18  C   UNL     1     136.286 126.004 122.080  1.00  0.00    +0.016 A 
BRANCH  17  19
ATOM     19  C   UNL     1     135.234 124.226 120.712  1.00  0.00    +0.337 C 
ATOM     20  O   UNL     1     135.303 123.009 120.673  1.00  0.00    -0.246 OA
BRANCH  19  21
ATOM     21  O   UNL     1     135.063 125.050 119.649  1.00  0.00    -0.465 OA
ATOM     22  C   UNL     1     134.540 124.394 118.490  1.00  0.00    +0.282 C 
ENDBRANCH  19  21
ENDBRANCH  17  19
ENDBRANCH   1  13
TORSDOF 7
ENDMDL
MODEL 13
REMARK VINA RESULT:    -6.112      2.406      5.237
REMARK INTER + INTRA:         -11.143
REMARK INTER:                 -10.277
REMARK INTRA:                  -0.866
REMARK UNBOUND:                -2.529
REMARK SMILES COC(=O)c1cccc(CC[N@@H+](C)Cc2ccccc2)c1
REMARK SMILES IDX 10 1 11 2 12 3 13 4 14 6 15 7 16 8 20 9 17 10 19 11 18 12
REMARK SMILES IDX 9 13 8 14 21 15 7 16 5 17 6 18 3 19 4 20 2 21 1 22
REMARK H PARENT 12 5
REMARK INDEX MAP 4 1 3 2 2 3 1 4 25 5 15 6 16 7 17 8 21 9 18 10 20 11 19 12
REMARK INDEX MAP 5 13 6 14 10 15 7 16 9 17 8 18 11 19 12 20 13 21 14 22
ROOT
ATOM      1  C   UNL     1     132.333 125.040 126.429  1.00  0.00    +0.097 C 
ENDROOT
BRANCH   1   2
ATOM      2  C   UNL     1     132.756 126.069 125.368  1.00  0.00    +0.267 C 
BRANCH   2   3
ATOM      3  N   UNL     1     132.916 125.442 123.993  1.00  0.00    -0.333 N 
ATOM      4  C   UNL     1     131.724 125.663 123.103  1.00  0.00    +0.333 C 
ATOM      5  H   UNL     1     133.001 124.426 124.125  1.00  0.00    +0.348 HD
BRANCH   3   6
ATOM      6  C   UNL     1     134.213 125.863 123.331  1.00  0.00    +0.298 C 
BRANCH   6   7
ATOM      7  C   UNL     1     134.584 124.992 122.162  1.00  0.00    +0.006 A 
ATOM      8  C   UNL     1     134.460 125.475 120.848  1.00  0.00    +0.009 A 
ATOM      9  C   UNL     1     135.074 123.693 122.364  1.00  0.00    +0.009 A 
ATOM     10  C   UNL     1     134.827 124.677 119.764  1.00  0.00    +0.001 A 
ATOM     11  C   UNL     1     135.441 122.899 121.276  1.00  0.00    +0.001 A 
ATOM     12  C   UNL     1     135.319 123.393 119.979  1.00  0.00    +0.000 A 
ENDBRANCH   6   7
ENDBRANCH   3   6
ENDBRANCH   2   3
ENDBRANCH   1   2
BRANCH   1  13
ATOM     13  C   UNL     1     132.933 123.672 126.200  1.00  0.00    -0.042 A 
ATOM     14  C   UNL     1     132.105 122.561 125.995  1.00  0.00    +0.004 A 
ATOM     15  C   UNL     1     134.328 123.501 126.167  1.00  0.00    +0.019 A 
ATOM     16  C   UNL     1     132.657 121.305 125.740  1.00  0.00    +0.001 A 
ATOM     17  C   UNL     1     134.887 122.238 125.911  1.00  0.00    +0.060 A 
ATOM     18  C   UNL     1     134.041 121.145 125.693  1.00  0.00    +0.016 A 
BRANCH  17  19
ATOM     19  C   UNL     1     136.358 122.012 125.851  1.00  0.00    +0.337 C 
ATOM     20  O   UNL     1     137.101 122.622 125.100  1.00  0.00    -0.246 OA
BRANCH  19  21
ATOM     21  O   UNL     1     136.730 121.066 126.748  1.00  0.00    -0.465 OA
ATOM     22  C   UNL     1     136.539 121.459 128.111  1.00  0.00    +0.282 C 
ENDBRANCH  19  21
ENDBRANCH  17  19
ENDBRANCH   1  13
TORSDOF 7
ENDMDL
MODEL 14
REMARK VINA RESULT:    -6.060      3.553      6.647
REMARK INTER + INTRA:         -11.069
REMARK INTER:                 -10.608
REMARK INTRA:                  -0.461
REMARK UNBOUND:                -2.529
REMARK SMILES COC(=O)c1cccc(CC[N@@H+](C)Cc2ccccc2)c1
REMARK SMILES IDX 10 1 11 2 12 3 13 4 14 6 15 7 16 8 20 9 17 10 19 11 18 12
REMARK SMILES IDX 9 13 8 14 21 15 7 16 5 17 6 18 3 19 4 20 2 21 1 22
REMARK H PARENT 12 5
REMARK INDEX MAP 4 1 3 2 2 3 1 4 25 5 15 6 16 7 17 8 21 9 18 10 20 11 19 12
REMARK INDEX MAP 5 13 6 14 10 15 7 16 9 17 8 18 11 19 12 20 13 21 14 22
ROOT
ATOM      1  C   UNL     1     133.271 125.550 123.389  1.00  0.00    +0.097 C 
ENDROOT
BRANCH   1   2
ATOM      2  C   UNL     1     133.580 124.931 122.017  1.00  0.00    +0.267 C 
BRANCH   2   3
ATOM      3  N   UNL     1     134.837 125.513 121.394  1.00  0.00    -0.333 N 
ATOM      4  C   UNL     1     135.612 126.389 122.341  1.00  0.00    +0.333 C 
ATOM      5  H   UNL     1     134.545 126.112 120.611  1.00  0.00    +0.348 HD
BRANCH   3   6
ATOM      6  C   UNL     1     135.703 124.439 120.767  1.00  0.00    +0.298 C 
BRANCH   6   7
ATOM      7  C   UNL     1     135.134 123.905 119.480  1.00  0.00    +0.006 A 
ATOM      8  C   UNL     1     134.430 124.753 118.609  1.00  0.00    +0.009 A 
ATOM      9  C   UNL     1     135.313 122.561 119.122  1.00  0.00    +0.009 A 
ATOM     10  C   UNL     1     133.924 124.265 117.404  1.00  0.00    +0.001 A 
ATOM     11  C   UNL     1     134.805 122.077 117.915  1.00  0.00    +0.001 A 
ATOM     12  C   UNL     1     134.114 122.930 117.057  1.00  0.00    +0.000 A 
ENDBRANCH   6   7
ENDBRANCH   3   6
ENDBRANCH   2   3
ENDBRANCH   1   2
BRANCH   1  13
ATOM     13  C   UNL     1     132.847 124.527 124.418  1.00  0.00    -0.042 A 
ATOM     14  C   UNL     1     133.534 123.311 124.533  1.00  0.00    +0.004 A 
ATOM     15  C   UNL     1     131.774 124.790 125.287  1.00  0.00    +0.019 A 
ATOM     16  C   UNL     1     133.171 122.384 125.511  1.00  0.00    +0.001 A 
ATOM     17  C   UNL     1     131.406 123.860 126.272  1.00  0.00    +0.060 A 
ATOM     18  C   UNL     1     132.116 122.659 126.380  1.00  0.00    +0.016 A 
BRANCH  17  19
ATOM     19  C   UNL     1     130.287 124.102 127.224  1.00  0.00    +0.337 C 
ATOM     20  O   UNL     1     129.570 123.216 127.657  1.00  0.00    -0.246 OA
BRANCH  19  21
ATOM     21  O   UNL     1     130.207 125.419 127.540  1.00  0.00    -0.465 OA
ATOM     22  C   UNL     1     128.985 125.783 128.187  1.00  0.00    +0.282 C 
ENDBRANCH  19  21
ENDBRANCH  17  19
ENDBRANCH   1  13
TORSDOF 7
ENDMDL
MODEL 15
REMARK VINA RESULT:    -6.003      3.672      5.353
REMARK INTER + INTRA:         -10.988
REMARK INTER:                 -10.560
REMARK INTRA:                  -0.428
REMARK UNBOUND:                -2.529
REMARK SMILES COC(=O)c1cccc(CC[N@@H+](C)Cc2ccccc2)c1
REMARK SMILES IDX 10 1 11 2 12 3 13 4 14 6 15 7 16 8 20 9 17 10 19 11 18 12
REMARK SMILES IDX 9 13 8 14 21 15 7 16 5 17 6 18 3 19 4 20 2 21 1 22
REMARK H PARENT 12 5
REMARK INDEX MAP 4 1 3 2 2 3 1 4 25 5 15 6 16 7 17 8 21 9 18 10 20 11 19 12
REMARK INDEX MAP 5 13 6 14 10 15 7 16 9 17 8 18 11 19 12 20 13 21 14 22
ROOT
ATOM      1  C   UNL     1     131.172 124.616 126.318  1.00  0.00    +0.097 C 
ENDROOT
BRANCH   1   2
ATOM      2  C   UNL     1     130.703 125.643 125.275  1.00  0.00    +0.267 C 
BRANCH   2   3
ATOM      3  N   UNL     1     129.898 126.769 125.902  1.00  0.00    -0.333 N 
ATOM      4  C   UNL     1     130.051 126.842 127.396  1.00  0.00    +0.333 C 
ATOM      5  H   UNL     1     128.905 126.579 125.716  1.00  0.00    +0.348 HD
BRANCH   3   6
ATOM      6  C   UNL     1     130.176 128.100 125.230  1.00  0.00    +0.298 C 
BRANCH   6   7
ATOM      7  C   UNL     1     129.248 128.380 124.080  1.00  0.00    +0.006 A 
ATOM      8  C   UNL     1     129.336 129.593 123.375  1.00  0.00    +0.009 A 
ATOM      9  C   UNL     1     128.295 127.431 123.682  1.00  0.00    +0.009 A 
ATOM     10  C   UNL     1     128.493 129.843 122.291  1.00  0.00    +0.001 A 
ATOM     11  C   UNL     1     127.454 127.686 122.598  1.00  0.00    +0.001 A 
ATOM     12  C   UNL     1     127.556 128.890 121.903  1.00  0.00    +0.000 A 
ENDBRANCH   6   7
ENDBRANCH   3   6
ENDBRANCH   2   3
ENDBRANCH   1   2
BRANCH   1  13
ATOM     13  C   UNL     1     132.611 124.193 126.126  1.00  0.00    -0.042 A 
ATOM     14  C   UNL     1     133.042 122.932 126.560  1.00  0.00    +0.004 A 
ATOM     15  C   UNL     1     133.528 125.048 125.491  1.00  0.00    +0.019 A 
ATOM     16  C   UNL     1     134.358 122.523 126.345  1.00  0.00    +0.001 A 
ATOM     17  C   UNL     1     134.854 124.639 125.273  1.00  0.00    +0.060 A 
ATOM     18  C   UNL     1     135.259 123.370 125.700  1.00  0.00    +0.016 A 
BRANCH  17  19
ATOM     19  C   UNL     1     135.856 125.504 124.591  1.00  0.00    +0.337 C 
ATOM     20  O   UNL     1     135.554 126.423 123.848  1.00  0.00    -0.246 OA
BRANCH  19  21
ATOM     21  O   UNL     1     137.115 125.134 124.933  1.00  0.00    -0.465 OA
ATOM     22  C   UNL     1     137.893 126.194 125.498  1.00  0.00    +0.282 C 
ENDBRANCH  19  21
ENDBRANCH  17  19
ENDBRANCH   1  13
TORSDOF 7
ENDMDL
MODEL 16
REMARK VINA RESULT:    -5.976      2.919      6.245
REMARK INTER + INTRA:         -10.951
REMARK INTER:                 -10.450
REMARK INTRA:                  -0.501
REMARK UNBOUND:                -2.529
REMARK SMILES COC(=O)c1cccc(CC[N@@H+](C)Cc2ccccc2)c1
REMARK SMILES IDX 10 1 11 2 12 3 13 4 14 6 15 7 16 8 20 9 17 10 19 11 18 12
REMARK SMILES IDX 9 13 8 14 21 15 7 16 5 17 6 18 3 19 4 20 2 21 1 22
REMARK H PARENT 12 5
REMARK INDEX MAP 4 1 3 2 2 3 1 4 25 5 15 6 16 7 17 8 21 9 18 10 20 11 19 12
REMARK INDEX MAP 5 13 6 14 10 15 7 16 9 17 8 18 11 19 12 20 13 21 14 22
ROOT
ATOM      1  C   UNL     1     133.371 125.596 123.468  1.00  0.00    +0.097 C 
ENDROOT
BRANCH   1   2
ATOM      2  C   UNL     1     133.612 124.810 122.169  1.00  0.00    +0.267 C 
BRANCH   2   3
ATOM      3  N   UNL     1     134.817 125.328 121.401  1.00  0.00    -0.333 N 
ATOM      4  C   UNL     1     135.631 126.322 122.182  1.00  0.00    +0.333 C 
ATOM      5  H   UNL     1     134.465 125.822 120.571  1.00  0.00    +0.348 HD
BRANCH   3   6
ATOM      6  C   UNL     1     135.664 124.195 120.854  1.00  0.00    +0.298 C 
BRANCH   6   7
ATOM      7  C   UNL     1     135.176 123.689 119.524  1.00  0.00    +0.006 A 
ATOM      8  C   UNL     1     135.384 122.349 119.154  1.00  0.00    +0.009 A 
ATOM      9  C   UNL     1     134.491 124.538 118.643  1.00  0.00    +0.009 A 
ATOM     10  C   UNL     1     134.909 121.872 117.932  1.00  0.00    +0.001 A 
ATOM     11  C   UNL     1     134.017 124.056 117.421  1.00  0.00    +0.001 A 
ATOM     12  C   UNL     1     134.225 122.724 117.069  1.00  0.00    +0.000 A 
ENDBRANCH   6   7
ENDBRANCH   3   6
ENDBRANCH   2   3
ENDBRANCH   1   2
BRANCH   1  13
ATOM     13  C   UNL     1     132.737 124.760 124.556  1.00  0.00    -0.042 A 
ATOM     14  C   UNL     1     131.543 125.172 125.160  1.00  0.00    +0.004 A 
ATOM     15  C   UNL     1     133.326 123.550 124.961  1.00  0.00    +0.019 A 
ATOM     16  C   UNL     1     130.933 124.381 126.135  1.00  0.00    +0.001 A 
ATOM     17  C   UNL     1     132.716 122.750 125.941  1.00  0.00    +0.060 A 
ATOM     18  C   UNL     1     131.514 123.173 126.520  1.00  0.00    +0.016 A 
BRANCH  17  19
ATOM     19  C   UNL     1     133.294 121.454 126.389  1.00  0.00    +0.337 C 
ATOM     20  O   UNL     1     132.697 120.663 127.101  1.00  0.00    -0.246 OA
BRANCH  19  21
ATOM     21  O   UNL     1     134.540 121.286 125.880  1.00  0.00    -0.465 OA
ATOM     22  C   UNL     1     135.586 121.515 126.830  1.00  0.00    +0.282 C 
ENDBRANCH  19  21
ENDBRANCH  17  19
ENDBRANCH   1  13
TORSDOF 7
ENDMDL
MODEL 17
REMARK VINA RESULT:    -5.914      2.242      4.673
REMARK INTER + INTRA:         -10.863
REMARK INTER:                 -10.422
REMARK INTRA:                  -0.441
REMARK UNBOUND:                -2.529
REMARK SMILES COC(=O)c1cccc(CC[N@@H+](C)Cc2ccccc2)c1
REMARK SMILES IDX 10 1 11 2 12 3 13 4 14 6 15 7 16 8 20 9 17 10 19 11 18 12
REMARK SMILES IDX 9 13 8 14 21 15 7 16 5 17 6 18 3 19 4 20 2 21 1 22
REMARK H PARENT 12 5
REMARK INDEX MAP 4 1 3 2 2 3 1 4 25 5 15 6 16 7 17 8 21 9 18 10 20 11 19 12
REMARK INDEX MAP 5 13 6 14 10 15 7 16 9 17 8 18 11 19 12 20 13 21 14 22
ROOT
ATOM      1  C   UNL     1     134.836 124.706 122.323  1.00  0.00    +0.097 C 
ENDROOT
BRANCH   1   2
ATOM      2  C   UNL     1     136.070 125.526 122.733  1.00  0.00    +0.267 C 
BRANCH   2   3
ATOM      3  N   UNL     1     136.169 125.699 124.239  1.00  0.00    -0.333 N 
ATOM      4  C   UNL     1     136.440 127.120 124.652  1.00  0.00    +0.333 C 
ATOM      5  H   UNL     1     136.970 125.140 124.561  1.00  0.00    +0.348 HD
BRANCH   3   6
ATOM      6  C   UNL     1     134.967 125.111 124.953  1.00  0.00    +0.298 C 
BRANCH   6   7
ATOM      7  C   UNL     1     135.224 123.731 125.493  1.00  0.00    +0.006 A 
ATOM      8  C   UNL     1     136.432 123.071 125.211  1.00  0.00    +0.009 A 
ATOM      9  C   UNL     1     134.273 123.091 126.301  1.00  0.00    +0.009 A 
ATOM     10  C   UNL     1     136.682 121.801 125.733  1.00  0.00    +0.001 A 
ATOM     11  C   UNL     1     134.527 121.821 126.821  1.00  0.00    +0.001 A 
ATOM     12  C   UNL     1     135.731 121.179 126.539  1.00  0.00    +0.000 A 
ENDBRANCH   6   7
ENDBRANCH   3   6
ENDBRANCH   2   3
ENDBRANCH   1   2
BRANCH   1  13
ATOM     13  C   UNL     1     134.736 124.493 120.830  1.00  0.00    -0.042 A 
ATOM     14  C   UNL     1     134.434 125.565 119.980  1.00  0.00    +0.004 A 
ATOM     15  C   UNL     1     134.964 123.223 120.273  1.00  0.00    +0.019 A 
ATOM     16  C   UNL     1     134.384 125.380 118.599  1.00  0.00    +0.001 A 
ATOM     17  C   UNL     1     134.915 123.032 118.883  1.00  0.00    +0.060 A 
ATOM     18  C   UNL     1     134.628 124.120 118.051  1.00  0.00    +0.016 A 
BRANCH  17  19
ATOM     19  C   UNL     1     135.165 121.709 118.247  1.00  0.00    +0.337 C 
ATOM     20  O   UNL     1     135.421 120.698 118.879  1.00  0.00    -0.246 OA
BRANCH  19  21
ATOM     21  O   UNL     1     135.046 121.799 116.899  1.00  0.00    -0.465 OA
ATOM     22  C   UNL     1     135.349 120.581 116.212  1.00  0.00    +0.282 C 
ENDBRANCH  19  21
ENDBRANCH  17  19
ENDBRANCH   1  13
TORSDOF 7
ENDMDL
MODEL 18
REMARK VINA RESULT:    -5.887      2.905      5.421
REMARK INTER + INTRA:         -10.825
REMARK INTER:                  -9.810
REMARK INTRA:                  -1.015
REMARK UNBOUND:                -2.529
REMARK SMILES COC(=O)c1cccc(CC[N@@H+](C)Cc2ccccc2)c1
REMARK SMILES IDX 10 1 11 2 12 3 13 4 14 6 15 7 16 8 20 9 17 10 19 11 18 12
REMARK SMILES IDX 9 13 8 14 21 15 7 16 5 17 6 18 3 19 4 20 2 21 1 22
REMARK H PARENT 12 5
REMARK INDEX MAP 4 1 3 2 2 3 1 4 25 5 15 6 16 7 17 8 21 9 18 10 20 11 19 12
REMARK INDEX MAP 5 13 6 14 10 15 7 16 9 17 8 18 11 19 12 20 13 21 14 22
ROOT
ATOM      1  C   UNL     1     133.335 123.615 126.254  1.00  0.00    +0.097 C 
ENDROOT
BRANCH   1   2
ATOM      2  C   UNL     1     134.313 122.698 125.502  1.00  0.00    +0.267 C 
BRANCH   2   3
ATOM      3  N   UNL     1     135.721 122.774 126.068  1.00  0.00    -0.333 N 
ATOM      4  C   UNL     1     136.415 121.440 126.102  1.00  0.00    +0.333 C 
ATOM      5  H   UNL     1     135.645 123.092 127.043  1.00  0.00    +0.348 HD
BRANCH   3   6
ATOM      6  C   UNL     1     136.550 123.836 125.371  1.00  0.00    +0.298 C 
BRANCH   6   7
ATOM      7  C   UNL     1     136.149 124.043 123.936  1.00  0.00    +0.006 A 
ATOM      8  C   UNL     1     136.053 122.949 123.060  1.00  0.00    +0.009 A 
ATOM      9  C   UNL     1     135.846 125.326 123.457  1.00  0.00    +0.009 A 
ATOM     10  C   UNL     1     135.656 123.138 121.735  1.00  0.00    +0.001 A 
ATOM     11  C   UNL     1     135.449 125.510 122.131  1.00  0.00    +0.001 A 
ATOM     12  C   UNL     1     135.353 124.416 121.274  1.00  0.00    +0.000 A 
ENDBRANCH   6   7
ENDBRANCH   3   6
ENDBRANCH   2   3
ENDBRANCH   1   2
BRANCH   1  13
ATOM     13  C   UNL     1     132.622 124.591 125.347  1.00  0.00    -0.042 A 
ATOM     14  C   UNL     1     132.498 124.323 123.977  1.00  0.00    +0.004 A 
ATOM     15  C   UNL     1     132.056 125.767 125.867  1.00  0.00    +0.019 A 
ATOM     16  C   UNL     1     131.802 125.201 123.145  1.00  0.00    +0.001 A 
ATOM     17  C   UNL     1     131.355 126.653 125.034  1.00  0.00    +0.060 A 
ATOM     18  C   UNL     1     131.229 126.358 123.671  1.00  0.00    +0.016 A 
BRANCH  17  19
ATOM     19  C   UNL     1     130.725 127.903 125.543  1.00  0.00    +0.337 C 
ATOM     20  O   UNL     1     130.457 128.857 124.833  1.00  0.00    -0.246 OA
BRANCH  19  21
ATOM     21  O   UNL     1     130.485 127.806 126.874  1.00  0.00    -0.465 OA
ATOM     22  C   UNL     1     129.103 127.620 127.198  1.00  0.00    +0.282 C 
ENDBRANCH  19  21
ENDBRANCH  17  19
ENDBRANCH   1  13
TORSDOF 7
ENDMDL
MODEL 19
REMARK VINA RESULT:    -5.867      3.344      6.117
REMARK INTER + INTRA:         -10.797
REMARK INTER:                 -10.040
REMARK INTRA:                  -0.757
REMARK UNBOUND:                -2.529
REMARK SMILES COC(=O)c1cccc(CC[N@@H+](C)Cc2ccccc2)c1
REMARK SMILES IDX 10 1 11 2 12 3 13 4 14 6 15 7 16 8 20 9 17 10 19 11 18 12
REMARK SMILES IDX 9 13 8 14 21 15 7 16 5 17 6 18 3 19 4 20 2 21 1 22
REMARK H PARENT 12 5
REMARK INDEX MAP 4 1 3 2 2 3 1 4 25 5 15 6 16 7 17 8 21 9 18 10 20 11 19 12
REMARK INDEX MAP 5 13 6 14 10 15 7 16 9 17 8 18 11 19 12 20 13 21 14 22
ROOT
ATOM      1  C   UNL     1     133.158 125.212 123.987  1.00  0.00    +0.097 C 
ENDROOT
BRANCH   1   2
ATOM      2  C   UNL     1     134.494 125.929 124.235  1.00  0.00    +0.267 C 
BRANCH   2   3
ATOM      3  N   UNL     1     135.656 125.233 123.547  1.00  0.00    -0.333 N 
ATOM      4  C   UNL     1     136.443 126.147 122.648  1.00  0.00    +0.333 C 
ATOM      5  H   UNL     1     135.262 124.497 122.946  1.00  0.00    +0.348 HD
BRANCH   3   6
ATOM      6  C   UNL     1     136.540 124.501 124.538  1.00  0.00    +0.298 C 
BRANCH   6   7
ATOM      7  C   UNL     1     135.843 123.345 125.202  1.00  0.00    +0.006 A 
ATOM      8  C   UNL     1     135.407 123.449 126.534  1.00  0.00    +0.009 A 
ATOM      9  C   UNL     1     135.600 122.156 124.499  1.00  0.00    +0.009 A 
ATOM     10  C   UNL     1     134.738 122.386 127.143  1.00  0.00    +0.001 A 
ATOM     11  C   UNL     1     134.929 121.097 125.112  1.00  0.00    +0.001 A 
ATOM     12  C   UNL     1     134.498 121.214 126.431  1.00  0.00    +0.000 A 
ENDBRANCH   6   7
ENDBRANCH   3   6
ENDBRANCH   2   3
ENDBRANCH   1   2
BRANCH   1  13
ATOM     13  C   UNL     1     131.993 125.871 124.690  1.00  0.00    -0.042 A 
ATOM     14  C   UNL     1     131.993 126.008 126.084  1.00  0.00    +0.004 A 
ATOM     15  C   UNL     1     130.907 126.373 123.954  1.00  0.00    +0.019 A 
ATOM     16  C   UNL     1     130.939 126.654 126.731  1.00  0.00    +0.001 A 
ATOM     17  C   UNL     1     129.844 127.024 124.601  1.00  0.00    +0.060 A 
ATOM     18  C   UNL     1     129.872 127.165 125.993  1.00  0.00    +0.016 A 
BRANCH  17  19
ATOM     19  C   UNL     1     128.680 127.586 123.861  1.00  0.00    +0.337 C 
ATOM     20  O   UNL     1     127.925 126.909 123.184  1.00  0.00    -0.246 OA
BRANCH  19  21
ATOM     21  O   UNL     1     128.583 128.923 124.072  1.00  0.00    -0.465 OA
ATOM     22  C   UNL     1     129.437 129.702 123.229  1.00  0.00    +0.282 C 
ENDBRANCH  19  21
ENDBRANCH  17  19
ENDBRANCH   1  13
TORSDOF 7
ENDMDL
MODEL 20
REMARK VINA RESULT:    -5.860      3.603      6.239
REMARK INTER + INTRA:         -10.788
REMARK INTER:                 -10.630
REMARK INTRA:                  -0.157
REMARK UNBOUND:                -2.529
REMARK SMILES COC(=O)c1cccc(CC[N@@H+](C)Cc2ccccc2)c1
REMARK SMILES IDX 10 1 11 2 12 3 13 4 14 6 15 7 16 8 20 9 17 10 19 11 18 12
REMARK SMILES IDX 9 13 8 14 21 15 7 16 5 17 6 18 3 19 4 20 2 21 1 22
REMARK H PARENT 12 5
REMARK INDEX MAP 4 1 3 2 2 3 1 4 25 5 15 6 16 7 17 8 21 9 18 10 20 11 19 12
REMARK INDEX MAP 5 13 6 14 10 15 7 16 9 17 8 18 11 19 12 20 13 21 14 22
ROOT
ATOM      1  C   UNL     1     132.650 125.709 126.041  1.00  0.00    +0.097 C 
ENDROOT
BRANCH   1   2
ATOM      2  C   UNL     1     133.461 125.775 124.738  1.00  0.00    +0.267 C 
BRANCH   2   3
ATOM      3  N   UNL     1     134.957 125.833 124.996  1.00  0.00    -0.333 N 
ATOM      4  C   UNL     1     135.544 124.497 125.361  1.00  0.00    +0.333 C 
ATOM      5  H   UNL     1     135.107 126.452 125.802  1.00  0.00    +0.348 HD
BRANCH   3   6
ATOM      6  C   UNL     1     135.700 126.493 123.850  1.00  0.00    +0.298 C 
BRANCH   6   7
ATOM      7  C   UNL     1     135.390 125.870 122.516  1.00  0.00    +0.006 A 
ATOM      8  C   UNL     1     136.002 124.664 122.135  1.00  0.00    +0.009 A 
ATOM      9  C   UNL     1     134.474 126.473 121.641  1.00  0.00    +0.009 A 
ATOM     10  C   UNL     1     135.696 124.073 120.909  1.00  0.00    +0.001 A 
ATOM     11  C   UNL     1     134.171 125.877 120.416  1.00  0.00    +0.001 A 
ATOM     12  C   UNL     1     134.780 124.678 120.052  1.00  0.00    +0.000 A 
ENDBRANCH   6   7
ENDBRANCH   3   6
ENDBRANCH   2   3
ENDBRANCH   1   2
BRANCH   1  13
ATOM     13  C   UNL     1     131.442 126.618 126.033  1.00  0.00    -0.042 A 
ATOM     14  C   UNL     1     131.071 127.314 127.191  1.00  0.00    +0.004 A 
ATOM     15  C   UNL     1     130.688 126.793 124.860  1.00  0.00    +0.019 A 
ATOM     16  C   UNL     1     129.982 128.186 127.174  1.00  0.00    +0.001 A 
ATOM     17  C   UNL     1     129.592 127.670 124.838  1.00  0.00    +0.060 A 
ATOM     18  C   UNL     1     129.249 128.368 126.002  1.00  0.00    +0.016 A 
BRANCH  17  19
ATOM     19  C   UNL     1     128.775 127.900 123.615  1.00  0.00    +0.337 C 
ATOM     20  O   UNL     1     128.115 127.028 123.075  1.00  0.00    -0.246 OA
BRANCH  19  21
ATOM     21  O   UNL     1     128.860 129.196 123.222  1.00  0.00    -0.465 OA
ATOM     22  C   UNL     1     128.041 129.509 122.091  1.00  0.00    +0.282 C 
ENDBRANCH  19  21
ENDBRANCH  17  19
ENDBRANCH   1  13
TORSDOF 7
ENDMDL
