MODEL 1
REMARK VINA RESULT:    -7.277      0.000      0.000
REMARK INTER + INTRA:         -12.780
REMARK INTER:                 -10.255
REMARK INTRA:                  -2.525
REMARK UNBOUND:                -2.525
REMARK SMILES COC(=O)c1cccc(CC[N@@H+](C)Cc2ccccc2)c1
REMARK SMILES IDX 10 1 11 2 12 3 13 4 14 6 15 7 16 8 20 9 17 10 19 11 18 12
REMARK SMILES IDX 9 13 8 14 21 15 7 16 5 17 6 18 3 19 4 20 2 21 1 22
REMARK H PARENT 12 5
REMARK INDEX MAP 4 1 3 2 2 3 1 4 25 5 15 6 16 7 17 8 21 9 18 10 20 11 19 12
REMARK INDEX MAP 5 13 6 14 10 15 7 16 9 17 8 18 11 19 12 20 13 21 14 22
ROOT
ATOM      1  C   UNL     1     136.102 121.841 125.441  1.00  0.00    +0.097 C 
ENDROOT
BRANCH   1   2
ATOM      2  C   UNL     1     135.136 122.050 126.617  1.00  0.00    +0.267 C 
BRANCH   2   3
ATOM      3  N   UNL     1     133.686 122.107 126.166  1.00  0.00    -0.333 N 
ATOM      4  C   UNL     1     132.843 121.008 126.753  1.00  0.00    +0.333 C 
ATOM      5  H   UNL     1     133.675 121.974 125.146  1.00  0.00    +0.348 HD
BRANCH   3   6
ATOM      6  C   UNL     1     133.080 123.479 126.391  1.00  0.00    +0.298 C 
BRANCH   6   7
ATOM      7  C   UNL     1     132.757 124.194 125.108  1.00  0.00    +0.006 A 
ATOM      8  C   UNL     1     132.929 125.585 125.006  1.00  0.00    +0.009 A 
ATOM      9  C   UNL     1     132.296 123.483 123.989  1.00  0.00    +0.009 A 
ATOM     10  C   UNL     1     132.653 126.245 123.808  1.00  0.00    +0.001 A 
ATOM     11  C   UNL     1     132.023 124.148 122.793  1.00  0.00    +0.001 A 
ATOM     12  C   UNL     1     132.204 125.527 122.703  1.00  0.00    +0.000 A 
ENDBRANCH   6   7
ENDBRANCH   3   6
ENDBRANCH   2   3
ENDBRANCH   1   2
BRANCH   1  13
ATOM     13  C   UNL     1     136.071 122.974 124.440  1.00  0.00    -0.042 A 
ATOM     14  C   UNL     1     136.437 124.270 124.827  1.00  0.00    +0.004 A 
ATOM     15  C   UNL     1     135.696 122.739 123.107  1.00  0.00    +0.019 A 
ATOM     16  C   UNL     1     136.450 125.308 123.895  1.00  0.00    +0.001 A 
ATOM     17  C   UNL     1     135.708 123.781 122.166  1.00  0.00    +0.060 A 
ATOM     18  C   UNL     1     136.093 125.065 122.569  1.00  0.00    +0.016 A 
BRANCH  17  19
ATOM     19  C   UNL     1     135.334 123.576 120.739  1.00  0.00    +0.337 C 
ATOM     20  O   UNL     1     135.667 122.597 120.092  1.00  0.00    -0.246 OA
BRANCH  19  21
ATOM     21  O   UNL     1     134.572 124.606 120.294  1.00  0.00    -0.465 OA
ATOM     22  C   UNL     1     134.577 124.753 118.871  1.00  0.00    +0.282 C 
ENDBRANCH  19  21
ENDBRANCH  17  19
ENDBRANCH   1  13
TORSDOF 7
ENDMDL
MODEL 2
REMARK VINA RESULT:    -7.161      3.175      6.045
REMARK INTER + INTRA:         -12.616
REMARK INTER:                 -10.474
REMARK INTRA:                  -2.143
REMARK UNBOUND:                -2.525
REMARK SMILES COC(=O)c1cccc(CC[N@@H+](C)Cc2ccccc2)c1
REMARK SMILES IDX 10 1 11 2 12 3 13 4 14 6 15 7 16 8 20 9 17 10 19 11 18 12
REMARK SMILES IDX 9 13 8 14 21 15 7 16 5 17 6 18 3 19 4 20 2 21 1 22
REMARK H PARENT 12 5
REMARK INDEX MAP 4 1 3 2 2 3 1 4 25 5 15 6 16 7 17 8 21 9 18 10 20 11 19 12
REMARK INDEX MAP 5 13 6 14 10 15 7 16 9 17 8 18 11 19 12 20 13 21 14 22
ROOT
ATOM      1  C   UNL     1     132.633 124.064 122.763  1.00  0.00    +0.097 C 
ENDROOT
BRANCH   1   2
ATOM      2  C   UNL     1     133.993 124.756 122.583  1.00  0.00    +0.267 C 
BRANCH   2   3
ATOM      3  N   UNL     1     135.097 123.770 122.237  1.00  0.00    -0.333 N 
ATOM      4  C   UNL     1     135.736 124.045 120.904  1.00  0.00    +0.333 C 
ATOM      5  H   UNL     1     134.668 122.838 122.173  1.00  0.00    +0.348 HD
BRANCH   3   6
ATOM      6  C   UNL     1     136.118 123.657 123.352  1.00  0.00    +0.298 C 
BRANCH   6   7
ATOM      7  C   UNL     1     135.569 122.993 124.585  1.00  0.00    +0.006 A 
ATOM      8  C   UNL     1     135.375 123.733 125.764  1.00  0.00    +0.009 A 
ATOM      9  C   UNL     1     135.224 121.633 124.572  1.00  0.00    +0.009 A 
ATOM     10  C   UNL     1     134.841 123.124 126.900  1.00  0.00    +0.001 A 
ATOM     11  C   UNL     1     134.690 121.029 125.711  1.00  0.00    +0.001 A 
ATOM     12  C   UNL     1     134.497 121.775 126.872  1.00  0.00    +0.000 A 
ENDBRANCH   6   7
ENDBRANCH   3   6
ENDBRANCH   2   3
ENDBRANCH   1   2
BRANCH   1  13
ATOM     13  C   UNL     1     132.059 124.237 124.151  1.00  0.00    -0.042 A 
ATOM     14  C   UNL     1     131.650 123.121 124.892  1.00  0.00    +0.004 A 
ATOM     15  C   UNL     1     131.950 125.516 124.723  1.00  0.00    +0.019 A 
ATOM     16  C   UNL     1     131.161 123.275 126.190  1.00  0.00    +0.001 A 
ATOM     17  C   UNL     1     131.458 125.675 126.029  1.00  0.00    +0.060 A 
ATOM     18  C   UNL     1     131.070 124.546 126.758  1.00  0.00    +0.016 A 
BRANCH  17  19
ATOM     19  C   UNL     1     131.339 127.008 126.682  1.00  0.00    +0.337 C 
ATOM     20  O   UNL     1     132.130 127.918 126.500  1.00  0.00    -0.246 OA
BRANCH  19  21
ATOM     21  O   UNL     1     130.235 127.056 127.468  1.00  0.00    -0.465 OA
ATOM     22  C   UNL     1     129.243 127.982 127.013  1.00  0.00    +0.282 C 
ENDBRANCH  19  21
ENDBRANCH  17  19
ENDBRANCH   1  13
TORSDOF 7
ENDMDL
MODEL 3
REMARK VINA RESULT:    -7.079      1.654      3.806
REMARK INTER + INTRA:         -12.501
REMARK INTER:                 -11.310
REMARK INTRA:                  -1.191
REMARK UNBOUND:                -2.525
REMARK SMILES COC(=O)c1cccc(CC[N@@H+](C)Cc2ccccc2)c1
REMARK SMILES IDX 10 1 11 2 12 3 13 4 14 6 15 7 16 8 20 9 17 10 19 11 18 12
REMARK SMILES IDX 9 13 8 14 21 15 7 16 5 17 6 18 3 19 4 20 2 21 1 22
REMARK H PARENT 12 5
REMARK INDEX MAP 4 1 3 2 2 3 1 4 25 5 15 6 16 7 17 8 21 9 18 10 20 11 19 12
REMARK INDEX MAP 5 13 6 14 10 15 7 16 9 17 8 18 11 19 12 20 13 21 14 22
ROOT
ATOM      1  C   UNL     1     132.521 125.924 123.147  1.00  0.00    +0.097 C 
ENDROOT
BRANCH   1   2
ATOM      2  C   UNL     1     132.863 125.926 124.645  1.00  0.00    +0.267 C 
BRANCH   2   3
ATOM      3  N   UNL     1     132.153 124.814 125.397  1.00  0.00    -0.333 N 
ATOM      4  C   UNL     1     130.717 125.136 125.708  1.00  0.00    +0.333 C 
ATOM      5  H   UNL     1     132.631 124.697 126.300  1.00  0.00    +0.348 HD
BRANCH   3   6
ATOM      6  C   UNL     1     132.303 123.477 124.697  1.00  0.00    +0.298 C 
BRANCH   6   7
ATOM      7  C   UNL     1     133.579 122.767 125.057  1.00  0.00    +0.006 A 
ATOM      8  C   UNL     1     133.767 122.257 126.353  1.00  0.00    +0.009 A 
ATOM      9  C   UNL     1     134.592 122.588 124.103  1.00  0.00    +0.009 A 
ATOM     10  C   UNL     1     134.939 121.575 126.681  1.00  0.00    +0.001 A 
ATOM     11  C   UNL     1     135.763 121.905 124.436  1.00  0.00    +0.001 A 
ATOM     12  C   UNL     1     135.934 121.398 125.723  1.00  0.00    +0.000 A 
ENDBRANCH   6   7
ENDBRANCH   3   6
ENDBRANCH   2   3
ENDBRANCH   1   2
BRANCH   1  13
ATOM     13  C   UNL     1     133.732 125.726 122.264  1.00  0.00    -0.042 A 
ATOM     14  C   UNL     1     135.022 125.915 122.777  1.00  0.00    +0.004 A 
ATOM     15  C   UNL     1     133.580 125.330 120.924  1.00  0.00    +0.019 A 
ATOM     16  C   UNL     1     136.141 125.691 121.975  1.00  0.00    +0.001 A 
ATOM     17  C   UNL     1     134.705 125.103 120.114  1.00  0.00    +0.060 A 
ATOM     18  C   UNL     1     135.985 125.282 120.651  1.00  0.00    +0.016 A 
BRANCH  17  19
ATOM     19  C   UNL     1     134.594 124.667 118.694  1.00  0.00    +0.337 C 
ATOM     20  O   UNL     1     134.220 125.400 117.794  1.00  0.00    -0.246 OA
BRANCH  19  21
ATOM     21  O   UNL     1     134.983 123.375 118.562  1.00  0.00    -0.465 OA
ATOM     22  C   UNL     1     134.985 122.910 117.208  1.00  0.00    +0.282 C 
ENDBRANCH  19  21
ENDBRANCH  17  19
ENDBRANCH   1  13
TORSDOF 7
ENDMDL
MODEL 4
REMARK VINA RESULT:    -7.029      2.203      4.444
REMARK INTER + INTRA:         -12.430
REMARK INTER:                 -11.578
REMARK INTRA:                  -0.852
REMARK UNBOUND:                -2.525
REMARK SMILES COC(=O)c1cccc(CC[N@@H+](C)Cc2ccccc2)c1
REMARK SMILES IDX 10 1 11 2 12 3 13 4 14 6 15 7 16 8 20 9 17 10 19 11 18 12
REMARK SMILES IDX 9 13 8 14 21 15 7 16 5 17 6 18 3 19 4 20 2 21 1 22
REMARK H PARENT 12 5
REMARK INDEX MAP 4 1 3 2 2 3 1 4 25 5 15 6 16 7 17 8 21 9 18 10 20 11 19 12
REMARK INDEX MAP 5 13 6 14 10 15 7 16 9 17 8 18 11 19 12 20 13 21 14 22
ROOT
ATOM      1  C   UNL     1     134.630 126.311 122.008  1.00  0.00    +0.097 C 
ENDROOT
BRANCH   1   2
ATOM      2  C   UNL     1     135.825 126.916 122.761  1.00  0.00    +0.267 C 
BRANCH   2   3
ATOM      3  N   UNL     1     135.976 126.337 124.157  1.00  0.00    -0.333 N 
ATOM      4  C   UNL     1     136.468 127.343 125.162  1.00  0.00    +0.333 C 
ATOM      5  H   UNL     1     136.686 125.596 124.109  1.00  0.00    +0.348 HD
BRANCH   3   6
ATOM      6  C   UNL     1     134.710 125.639 124.616  1.00  0.00    +0.298 C 
BRANCH   6   7
ATOM      7  C   UNL     1     134.896 124.160 124.816  1.00  0.00    +0.006 A 
ATOM      8  C   UNL     1     136.182 123.594 124.776  1.00  0.00    +0.009 A 
ATOM      9  C   UNL     1     133.795 123.327 125.064  1.00  0.00    +0.009 A 
ATOM     10  C   UNL     1     136.358 122.226 124.987  1.00  0.00    +0.001 A 
ATOM     11  C   UNL     1     133.977 121.960 125.275  1.00  0.00    +0.001 A 
ATOM     12  C   UNL     1     135.257 121.412 125.239  1.00  0.00    +0.000 A 
ENDBRANCH   6   7
ENDBRANCH   3   6
ENDBRANCH   2   3
ENDBRANCH   1   2
BRANCH   1  13
ATOM     13  C   UNL     1     135.027 125.208 121.054  1.00  0.00    -0.042 A 
ATOM     14  C   UNL     1     136.011 124.279 121.417  1.00  0.00    +0.004 A 
ATOM     15  C   UNL     1     134.401 125.086 119.802  1.00  0.00    +0.019 A 
ATOM     16  C   UNL     1     136.349 123.234 120.556  1.00  0.00    +0.001 A 
ATOM     17  C   UNL     1     134.738 124.036 118.933  1.00  0.00    +0.060 A 
ATOM     18  C   UNL     1     135.712 123.110 119.321  1.00  0.00    +0.016 A 
BRANCH  17  19
ATOM     19  C   UNL     1     134.090 123.858 117.604  1.00  0.00    +0.337 C 
ATOM     20  O   UNL     1     133.528 124.760 117.005  1.00  0.00    -0.246 OA
BRANCH  19  21
ATOM     21  O   UNL     1     134.239 122.582 117.169  1.00  0.00    -0.465 OA
ATOM     22  C   UNL     1     135.012 122.469 115.970  1.00  0.00    +0.282 C 
ENDBRANCH  19  21
ENDBRANCH  17  19
ENDBRANCH   1  13
TORSDOF 7
ENDMDL
MODEL 5
REMARK VINA RESULT:    -6.866      1.785      3.742
REMARK INTER + INTRA:         -12.200
REMARK INTER:                 -11.025
REMARK INTRA:                  -1.175
REMARK UNBOUND:                -2.525
REMARK SMILES COC(=O)c1cccc(CC[N@@H+](C)Cc2ccccc2)c1
REMARK SMILES IDX 10 1 11 2 12 3 13 4 14 6 15 7 16 8 20 9 17 10 19 11 18 12
REMARK SMILES IDX 9 13 8 14 21 15 7 16 5 17 6 18 3 19 4 20 2 21 1 22
REMARK H PARENT 12 5
REMARK INDEX MAP 4 1 3 2 2 3 1 4 25 5 15 6 16 7 17 8 21 9 18 10 20 11 19 12
REMARK INDEX MAP 5 13 6 14 10 15 7 16 9 17 8 18 11 19 12 20 13 21 14 22
ROOT
ATOM      1  C   UNL     1     133.652 125.568 122.989  1.00  0.00    +0.097 C 
ENDROOT
BRANCH   1   2
ATOM      2  C   UNL     1     134.285 125.863 124.358  1.00  0.00    +0.267 C 
BRANCH   2   3
ATOM      3  N   UNL     1     133.345 125.539 125.506  1.00  0.00    -0.333 N 
ATOM      4  C   UNL     1     132.236 126.543 125.661  1.00  0.00    +0.333 C 
ATOM      5  H   UNL     1     133.895 125.570 126.374  1.00  0.00    +0.348 HD
BRANCH   3   6
ATOM      6  C   UNL     1     132.824 124.117 125.422  1.00  0.00    +0.298 C 
BRANCH   6   7
ATOM      7  C   UNL     1     133.881 123.088 125.717  1.00  0.00    +0.006 A 
ATOM      8  C   UNL     1     134.698 123.214 126.854  1.00  0.00    +0.009 A 
ATOM      9  C   UNL     1     134.055 121.979 124.876  1.00  0.00    +0.009 A 
ATOM     10  C   UNL     1     135.661 122.247 127.143  1.00  0.00    +0.001 A 
ATOM     11  C   UNL     1     135.019 121.014 125.170  1.00  0.00    +0.001 A 
ATOM     12  C   UNL     1     135.819 121.148 126.303  1.00  0.00    +0.000 A 
ENDBRANCH   6   7
ENDBRANCH   3   6
ENDBRANCH   2   3
ENDBRANCH   1   2
BRANCH   1  13
ATOM     13  C   UNL     1     134.560 124.777 122.075  1.00  0.00    -0.042 A 
ATOM     14  C   UNL     1     135.652 124.073 122.598  1.00  0.00    +0.004 A 
ATOM     15  C   UNL     1     134.309 124.721 120.693  1.00  0.00    +0.019 A 
ATOM     16  C   UNL     1     136.466 123.308 121.762  1.00  0.00    +0.001 A 
ATOM     17  C   UNL     1     135.125 123.952 119.849  1.00  0.00    +0.060 A 
ATOM     18  C   UNL     1     136.201 123.242 120.394  1.00  0.00    +0.016 A 
BRANCH  17  19
ATOM     19  C   UNL     1     134.888 123.849 118.382  1.00  0.00    +0.337 C 
ATOM     20  O   UNL     1     135.524 123.110 117.649  1.00  0.00    -0.246 OA
BRANCH  19  21
ATOM     21  O   UNL     1     133.871 124.664 118.006  1.00  0.00    -0.465 OA
ATOM     22  C   UNL     1     133.049 124.118 116.970  1.00  0.00    +0.282 C 
ENDBRANCH  19  21
ENDBRANCH  17  19
ENDBRANCH   1  13
TORSDOF 7
ENDMDL
MODEL 6
REMARK VINA RESULT:    -6.640      3.629      6.070
REMARK INTER + INTRA:         -11.882
REMARK INTER:                 -10.865
REMARK INTRA:                  -1.017
REMARK UNBOUND:                -2.525
REMARK SMILES COC(=O)c1cccc(CC[N@@H+](C)Cc2ccccc2)c1
REMARK SMILES IDX 10 1 11 2 12 3 13 4 14 6 15 7 16 8 20 9 17 10 19 11 18 12
REMARK SMILES IDX 9 13 8 14 21 15 7 16 5 17 6 18 3 19 4 20 2 21 1 22
REMARK H PARENT 12 5
REMARK INDEX MAP 4 1 3 2 2 3 1 4 25 5 15 6 16 7 17 8 21 9 18 10 20 11 19 12
REMARK INDEX MAP 5 13 6 14 10 15 7 16 9 17 8 18 11 19 12 20 13 21 14 22
ROOT
ATOM      1  C   UNL     1     133.213 121.835 126.214  1.00  0.00    +0.097 C 
ENDROOT
BRANCH   1   2
ATOM      2  C   UNL     1     134.551 121.863 126.969  1.00  0.00    +0.267 C 
BRANCH   2   3
ATOM      3  N   UNL     1     135.739 121.957 126.027  1.00  0.00    -0.333 N 
ATOM      4  C   UNL     1     136.902 121.106 126.459  1.00  0.00    +0.333 C 
ATOM      5  H   UNL     1     136.066 122.931 126.038  1.00  0.00    +0.348 HD
BRANCH   3   6
ATOM      6  C   UNL     1     135.338 121.693 124.588  1.00  0.00    +0.298 C 
BRANCH   6   7
ATOM      7  C   UNL     1     135.596 122.867 123.684  1.00  0.00    +0.006 A 
ATOM      8  C   UNL     1     135.327 122.776 122.308  1.00  0.00    +0.009 A 
ATOM      9  C   UNL     1     136.090 124.073 124.201  1.00  0.00    +0.009 A 
ATOM     10  C   UNL     1     135.541 123.873 121.472  1.00  0.00    +0.001 A 
ATOM     11  C   UNL     1     136.303 125.168 123.361  1.00  0.00    +0.001 A 
ATOM     12  C   UNL     1     136.026 125.067 121.999  1.00  0.00    +0.000 A 
ENDBRANCH   6   7
ENDBRANCH   3   6
ENDBRANCH   2   3
ENDBRANCH   1   2
BRANCH   1  13
ATOM     13  C   UNL     1     132.415 123.109 126.377  1.00  0.00    -0.042 A 
ATOM     14  C   UNL     1     133.004 124.353 126.116  1.00  0.00    +0.004 A 
ATOM     15  C   UNL     1     131.066 123.061 126.770  1.00  0.00    +0.019 A 
ATOM     16  C   UNL     1     132.257 125.526 126.224  1.00  0.00    +0.001 A 
ATOM     17  C   UNL     1     130.311 124.239 126.880  1.00  0.00    +0.060 A 
ATOM     18  C   UNL     1     130.915 125.470 126.599  1.00  0.00    +0.016 A 
BRANCH  17  19
ATOM     19  C   UNL     1     128.876 124.236 127.279  1.00  0.00    +0.337 C 
ATOM     20  O   UNL     1     128.075 125.079 126.909  1.00  0.00    -0.246 OA
BRANCH  19  21
ATOM     21  O   UNL     1     128.605 123.171 128.073  1.00  0.00    -0.465 OA
ATOM     22  C   UNL     1     127.436 123.338 128.880  1.00  0.00    +0.282 C 
ENDBRANCH  19  21
ENDBRANCH  17  19
ENDBRANCH   1  13
TORSDOF 7
ENDMDL
MODEL 7
REMARK VINA RESULT:    -6.633      1.358      3.427
REMARK INTER + INTRA:         -11.873
REMARK INTER:                  -9.891
REMARK INTRA:                  -1.982
REMARK UNBOUND:                -2.525
REMARK SMILES COC(=O)c1cccc(CC[N@@H+](C)Cc2ccccc2)c1
REMARK SMILES IDX 10 1 11 2 12 3 13 4 14 6 15 7 16 8 20 9 17 10 19 11 18 12
REMARK SMILES IDX 9 13 8 14 21 15 7 16 5 17 6 18 3 19 4 20 2 21 1 22
REMARK H PARENT 12 5
REMARK INDEX MAP 4 1 3 2 2 3 1 4 25 5 15 6 16 7 17 8 21 9 18 10 20 11 19 12
REMARK INDEX MAP 5 13 6 14 10 15 7 16 9 17 8 18 11 19 12 20 13 21 14 22
ROOT
ATOM      1  C   UNL     1     132.054 124.978 124.320  1.00  0.00    +0.097 C 
ENDROOT
BRANCH   1   2
ATOM      2  C   UNL     1     131.494 123.611 124.747  1.00  0.00    +0.267 C 
BRANCH   2   3
ATOM      3  N   UNL     1     131.740 123.325 126.219  1.00  0.00    -0.333 N 
ATOM      4  C   UNL     1     130.552 123.638 127.086  1.00  0.00    +0.333 C 
ATOM      5  H   UNL     1     132.503 123.940 126.529  1.00  0.00    +0.348 HD
BRANCH   3   6
ATOM      6  C   UNL     1     132.257 121.916 126.438  1.00  0.00    +0.298 C 
BRANCH   6   7
ATOM      7  C   UNL     1     133.748 121.807 126.274  1.00  0.00    +0.006 A 
ATOM      8  C   UNL     1     134.599 121.967 127.381  1.00  0.00    +0.009 A 
ATOM      9  C   UNL     1     134.311 121.526 125.020  1.00  0.00    +0.009 A 
ATOM     10  C   UNL     1     135.981 121.841 127.234  1.00  0.00    +0.001 A 
ATOM     11  C   UNL     1     135.694 121.400 124.879  1.00  0.00    +0.001 A 
ATOM     12  C   UNL     1     136.526 121.555 125.985  1.00  0.00    +0.000 A 
ENDBRANCH   6   7
ENDBRANCH   3   6
ENDBRANCH   2   3
ENDBRANCH   1   2
BRANCH   1  13
ATOM     13  C   UNL     1     133.529 124.937 123.992  1.00  0.00    -0.042 A 
ATOM     14  C   UNL     1     134.483 125.204 124.983  1.00  0.00    +0.004 A 
ATOM     15  C   UNL     1     133.963 124.610 122.696  1.00  0.00    +0.019 A 
ATOM     16  C   UNL     1     135.845 125.125 124.693  1.00  0.00    +0.001 A 
ATOM     17  C   UNL     1     135.333 124.529 122.400  1.00  0.00    +0.060 A 
ATOM     18  C   UNL     1     136.269 124.784 123.409  1.00  0.00    +0.016 A 
BRANCH  17  19
ATOM     19  C   UNL     1     135.840 124.171 121.046  1.00  0.00    +0.337 C 
ATOM     20  O   UNL     1     136.387 123.111 120.794  1.00  0.00    -0.246 OA
BRANCH  19  21
ATOM     21  O   UNL     1     135.584 125.168 120.163  1.00  0.00    -0.465 OA
ATOM     22  C   UNL     1     134.655 124.805 119.138  1.00  0.00    +0.282 C 
ENDBRANCH  19  21
ENDBRANCH  17  19
ENDBRANCH   1  13
TORSDOF 7
ENDMDL
MODEL 8
REMARK VINA RESULT:    -6.528      3.904      6.837
REMARK INTER + INTRA:         -11.724
REMARK INTER:                 -11.263
REMARK INTRA:                  -0.461
REMARK UNBOUND:                -2.525
REMARK SMILES COC(=O)c1cccc(CC[N@@H+](C)Cc2ccccc2)c1
REMARK SMILES IDX 10 1 11 2 12 3 13 4 14 6 15 7 16 8 20 9 17 10 19 11 18 12
REMARK SMILES IDX 9 13 8 14 21 15 7 16 5 17 6 18 3 19 4 20 2 21 1 22
REMARK H PARENT 12 5
REMARK INDEX MAP 4 1 3 2 2 3 1 4 25 5 15 6 16 7 17 8 21 9 18 10 20 11 19 12
REMARK INDEX MAP 5 13 6 14 10 15 7 16 9 17 8 18 11 19 12 20 13 21 14 22
ROOT
ATOM      1  C   UNL     1     133.073 124.095 125.775  1.00  0.00    +0.097 C 
ENDROOT
BRANCH   1   2
ATOM      2  C   UNL     1     133.668 125.148 124.827  1.00  0.00    +0.267 C 
BRANCH   2   3
ATOM      3  N   UNL     1     133.536 124.745 123.368  1.00  0.00    -0.333 N 
ATOM      4  C   UNL     1     132.124 124.837 122.857  1.00  0.00    +0.333 C 
ATOM      5  H   UNL     1     133.812 123.758 123.294  1.00  0.00    +0.348 HD
BRANCH   3   6
ATOM      6  C   UNL     1     134.516 125.496 122.487  1.00  0.00    +0.298 C 
BRANCH   6   7
ATOM      7  C   UNL     1     134.721 124.840 121.149  1.00  0.00    +0.006 A 
ATOM      8  C   UNL     1     134.268 125.464 119.974  1.00  0.00    +0.009 A 
ATOM      9  C   UNL     1     135.383 123.607 121.050  1.00  0.00    +0.009 A 
ATOM     10  C   UNL     1     134.481 124.869 118.730  1.00  0.00    +0.001 A 
ATOM     11  C   UNL     1     135.594 123.016 119.804  1.00  0.00    +0.001 A 
ATOM     12  C   UNL     1     135.145 123.648 118.646  1.00  0.00    +0.000 A 
ENDBRANCH   6   7
ENDBRANCH   3   6
ENDBRANCH   2   3
ENDBRANCH   1   2
BRANCH   1  13
ATOM     13  C   UNL     1     131.791 124.549 126.434  1.00  0.00    -0.042 A 
ATOM     14  C   UNL     1     130.795 123.619 126.762  1.00  0.00    +0.004 A 
ATOM     15  C   UNL     1     131.590 125.904 126.746  1.00  0.00    +0.019 A 
ATOM     16  C   UNL     1     129.630 124.030 127.409  1.00  0.00    +0.001 A 
ATOM     17  C   UNL     1     130.418 126.322 127.397  1.00  0.00    +0.060 A 
ATOM     18  C   UNL     1     129.443 125.374 127.730  1.00  0.00    +0.016 A 
BRANCH  17  19
ATOM     19  C   UNL     1     130.168 127.744 127.761  1.00  0.00    +0.337 C 
ATOM     20  O   UNL     1     129.593 128.533 127.030  1.00  0.00    -0.246 OA
BRANCH  19  21
ATOM     21  O   UNL     1     130.644 128.008 129.003  1.00  0.00    -0.465 OA
ATOM     22  C   UNL     1     131.795 128.858 129.009  1.00  0.00    +0.282 C 
ENDBRANCH  19  21
ENDBRANCH  17  19
ENDBRANCH   1  13
TORSDOF 7
ENDMDL
MODEL 9
REMARK VINA RESULT:    -6.465      3.664      6.384
REMARK INTER + INTRA:         -11.636
REMARK INTER:                 -11.322
REMARK INTRA:                  -0.313
REMARK UNBOUND:                -2.525
REMARK SMILES COC(=O)c1cccc(CC[N@@H+](C)Cc2ccccc2)c1
REMARK SMILES IDX 10 1 11 2 12 3 13 4 14 6 15 7 16 8 20 9 17 10 19 11 18 12
REMARK SMILES IDX 9 13 8 14 21 15 7 16 5 17 6 18 3 19 4 20 2 21 1 22
REMARK H PARENT 12 5
REMARK INDEX MAP 4 1 3 2 2 3 1 4 25 5 15 6 16 7 17 8 21 9 18 10 20 11 19 12
REMARK INDEX MAP 5 13 6 14 10 15 7 16 9 17 8 18 11 19 12 20 13 21 14 22
ROOT
ATOM      1  C   UNL     1     132.774 123.605 125.656  1.00  0.00    +0.097 C 
ENDROOT
BRANCH   1   2
ATOM      2  C   UNL     1     133.902 124.544 125.200  1.00  0.00    +0.267 C 
BRANCH   2   3
ATOM      3  N   UNL     1     135.114 124.470 126.113  1.00  0.00    -0.333 N 
ATOM      4  C   UNL     1     135.164 123.203 126.924  1.00  0.00    +0.333 C 
ATOM      5  H   UNL     1     135.044 125.246 126.783  1.00  0.00    +0.348 HD
BRANCH   3   6
ATOM      6  C   UNL     1     136.404 124.719 125.356  1.00  0.00    +0.298 C 
BRANCH   6   7
ATOM      7  C   UNL     1     136.257 124.531 123.871  1.00  0.00    +0.006 A 
ATOM      8  C   UNL     1     136.230 125.644 123.013  1.00  0.00    +0.009 A 
ATOM      9  C   UNL     1     136.164 123.245 123.318  1.00  0.00    +0.009 A 
ATOM     10  C   UNL     1     136.120 125.470 121.633  1.00  0.00    +0.001 A 
ATOM     11  C   UNL     1     136.055 123.077 121.937  1.00  0.00    +0.001 A 
ATOM     12  C   UNL     1     136.035 124.188 121.097  1.00  0.00    +0.000 A 
ENDBRANCH   6   7
ENDBRANCH   3   6
ENDBRANCH   2   3
ENDBRANCH   1   2
BRANCH   1  13
ATOM     13  C   UNL     1     131.644 124.331 126.349  1.00  0.00    -0.042 A 
ATOM     14  C   UNL     1     130.558 123.617 126.872  1.00  0.00    +0.004 A 
ATOM     15  C   UNL     1     131.677 125.729 126.496  1.00  0.00    +0.019 A 
ATOM     16  C   UNL     1     129.535 124.281 127.550  1.00  0.00    +0.001 A 
ATOM     17  C   UNL     1     130.650 126.401 127.178  1.00  0.00    +0.060 A 
ATOM     18  C   UNL     1     129.583 125.666 127.707  1.00  0.00    +0.016 A 
BRANCH  17  19
ATOM     19  C   UNL     1     130.650 127.877 127.373  1.00  0.00    +0.337 C 
ATOM     20  O   UNL     1     129.661 128.574 127.223  1.00  0.00    -0.246 OA
BRANCH  19  21
ATOM     21  O   UNL     1     131.879 128.306 127.752  1.00  0.00    -0.465 OA
ATOM     22  C   UNL     1     131.899 128.933 129.038  1.00  0.00    +0.282 C 
ENDBRANCH  19  21
ENDBRANCH  17  19
ENDBRANCH   1  13
TORSDOF 7
ENDMDL
MODEL 10
REMARK VINA RESULT:    -6.396      2.800      5.082
REMARK INTER + INTRA:         -11.538
REMARK INTER:                  -9.815
REMARK INTRA:                  -1.723
REMARK UNBOUND:                -2.525
REMARK SMILES COC(=O)c1cccc(CC[N@@H+](C)Cc2ccccc2)c1
REMARK SMILES IDX 10 1 11 2 12 3 13 4 14 6 15 7 16 8 20 9 17 10 19 11 18 12
REMARK SMILES IDX 9 13 8 14 21 15 7 16 5 17 6 18 3 19 4 20 2 21 1 22
REMARK H PARENT 12 5
REMARK INDEX MAP 4 1 3 2 2 3 1 4 25 5 15 6 16 7 17 8 21 9 18 10 20 11 19 12
REMARK INDEX MAP 5 13 6 14 10 15 7 16 9 17 8 18 11 19 12 20 13 21 14 22
ROOT
ATOM      1  C   UNL     1     132.872 122.689 125.970  1.00  0.00    +0.097 C 
ENDROOT
BRANCH   1   2
ATOM      2  C   UNL     1     134.249 122.834 126.636  1.00  0.00    +0.267 C 
BRANCH   2   3
ATOM      3  N   UNL     1     135.211 121.737 126.209  1.00  0.00    -0.333 N 
ATOM      4  C   UNL     1     134.568 120.699 125.330  1.00  0.00    +0.333 C 
ATOM      5  H   UNL     1     135.522 121.252 127.060  1.00  0.00    +0.348 HD
BRANCH   3   6
ATOM      6  C   UNL     1     136.475 122.306 125.595  1.00  0.00    +0.298 C 
BRANCH   6   7
ATOM      7  C   UNL     1     136.200 123.265 124.470  1.00  0.00    +0.006 A 
ATOM      8  C   UNL     1     136.154 124.649 124.710  1.00  0.00    +0.009 A 
ATOM      9  C   UNL     1     136.005 122.796 123.162  1.00  0.00    +0.009 A 
ATOM     10  C   UNL     1     135.924 125.541 123.662  1.00  0.00    +0.001 A 
ATOM     11  C   UNL     1     135.776 123.693 122.117  1.00  0.00    +0.001 A 
ATOM     12  C   UNL     1     135.738 125.063 122.368  1.00  0.00    +0.000 A 
ENDBRANCH   6   7
ENDBRANCH   3   6
ENDBRANCH   2   3
ENDBRANCH   1   2
BRANCH   1  13
ATOM     13  C   UNL     1     132.484 123.894 125.143  1.00  0.00    -0.042 A 
ATOM     14  C   UNL     1     132.444 123.810 123.745  1.00  0.00    +0.004 A 
ATOM     15  C   UNL     1     132.139 125.105 125.766  1.00  0.00    +0.019 A 
ATOM     16  C   UNL     1     132.045 124.908 122.982  1.00  0.00    +0.001 A 
ATOM     17  C   UNL     1     131.737 126.213 125.001  1.00  0.00    +0.060 A 
ATOM     18  C   UNL     1     131.688 126.103 123.607  1.00  0.00    +0.016 A 
BRANCH  17  19
ATOM     19  C   UNL     1     131.347 127.511 125.617  1.00  0.00    +0.337 C 
ATOM     20  O   UNL     1     130.576 128.298 125.094  1.00  0.00    -0.246 OA
BRANCH  19  21
ATOM     21  O   UNL     1     131.947 127.665 126.824  1.00  0.00    -0.465 OA
ATOM     22  C   UNL     1     131.048 128.044 127.870  1.00  0.00    +0.282 C 
ENDBRANCH  19  21
ENDBRANCH  17  19
ENDBRANCH   1  13
TORSDOF 7
ENDMDL
MODEL 11
REMARK VINA RESULT:    -6.332      3.240      5.025
REMARK INTER + INTRA:         -11.448
REMARK INTER:                 -10.908
REMARK INTRA:                  -0.540
REMARK UNBOUND:                -2.525
REMARK SMILES COC(=O)c1cccc(CC[N@@H+](C)Cc2ccccc2)c1
REMARK SMILES IDX 10 1 11 2 12 3 13 4 14 6 15 7 16 8 20 9 17 10 19 11 18 12
REMARK SMILES IDX 9 13 8 14 21 15 7 16 5 17 6 18 3 19 4 20 2 21 1 22
REMARK H PARENT 12 5
REMARK INDEX MAP 4 1 3 2 2 3 1 4 25 5 15 6 16 7 17 8 21 9 18 10 20 11 19 12
REMARK INDEX MAP 5 13 6 14 10 15 7 16 9 17 8 18 11 19 12 20 13 21 14 22
ROOT
ATOM      1  C   UNL     1     132.381 124.437 122.990  1.00  0.00    +0.097 C 
ENDROOT
BRANCH   1   2
ATOM      2  C   UNL     1     132.400 125.974 122.992  1.00  0.00    +0.267 C 
BRANCH   2   3
ATOM      3  N   UNL     1     131.679 126.554 124.197  1.00  0.00    -0.333 N 
ATOM      4  C   UNL     1     130.299 127.056 123.872  1.00  0.00    +0.333 C 
ATOM      5  H   UNL     1     132.220 127.367 124.518  1.00  0.00    +0.348 HD
BRANCH   3   6
ATOM      6  C   UNL     1     131.680 125.593 125.369  1.00  0.00    +0.298 C 
BRANCH   6   7
ATOM      7  C   UNL     1     131.015 126.161 126.593  1.00  0.00    +0.006 A 
ATOM      8  C   UNL     1     131.423 127.402 127.112  1.00  0.00    +0.009 A 
ATOM      9  C   UNL     1     129.968 125.472 127.224  1.00  0.00    +0.009 A 
ATOM     10  C   UNL     1     130.789 127.942 128.232  1.00  0.00    +0.001 A 
ATOM     11  C   UNL     1     129.338 126.017 128.344  1.00  0.00    +0.001 A 
ATOM     12  C   UNL     1     129.747 127.251 128.844  1.00  0.00    +0.000 A 
ENDBRANCH   6   7
ENDBRANCH   3   6
ENDBRANCH   2   3
ENDBRANCH   1   2
BRANCH   1  13
ATOM     13  C   UNL     1     133.764 123.828 122.989  1.00  0.00    -0.042 A 
ATOM     14  C   UNL     1     134.565 123.890 121.840  1.00  0.00    +0.004 A 
ATOM     15  C   UNL     1     134.273 123.210 124.144  1.00  0.00    +0.019 A 
ATOM     16  C   UNL     1     135.858 123.367 121.850  1.00  0.00    +0.001 A 
ATOM     17  C   UNL     1     135.574 122.682 124.158  1.00  0.00    +0.060 A 
ATOM     18  C   UNL     1     136.363 122.770 123.005  1.00  0.00    +0.016 A 
BRANCH  17  19
ATOM     19  C   UNL     1     136.162 122.033 125.363  1.00  0.00    +0.337 C 
ATOM     20  O   UNL     1     137.362 121.938 125.556  1.00  0.00    -0.246 OA
BRANCH  19  21
ATOM     21  O   UNL     1     135.183 121.599 126.195  1.00  0.00    -0.465 OA
ATOM     22  C   UNL     1     135.333 122.048 127.545  1.00  0.00    +0.282 C 
ENDBRANCH  19  21
ENDBRANCH  17  19
ENDBRANCH   1  13
TORSDOF 7
ENDMDL
MODEL 12
REMARK VINA RESULT:    -6.307      3.443      6.363
REMARK INTER + INTRA:         -11.413
REMARK INTER:                 -10.145
REMARK INTRA:                  -1.268
REMARK UNBOUND:                -2.525
REMARK SMILES COC(=O)c1cccc(CC[N@@H+](C)Cc2ccccc2)c1
REMARK SMILES IDX 10 1 11 2 12 3 13 4 14 6 15 7 16 8 20 9 17 10 19 11 18 12
REMARK SMILES IDX 9 13 8 14 21 15 7 16 5 17 6 18 3 19 4 20 2 21 1 22
REMARK H PARENT 12 5
REMARK INDEX MAP 4 1 3 2 2 3 1 4 25 5 15 6 16 7 17 8 21 9 18 10 20 11 19 12
REMARK INDEX MAP 5 13 6 14 10 15 7 16 9 17 8 18 11 19 12 20 13 21 14 22
ROOT
ATOM      1  C   UNL     1     132.928 124.985 122.820  1.00  0.00    +0.097 C 
ENDROOT
BRANCH   1   2
ATOM      2  C   UNL     1     134.210 125.831 122.837  1.00  0.00    +0.267 C 
BRANCH   2   3
ATOM      3  N   UNL     1     135.453 124.994 122.587  1.00  0.00    -0.333 N 
ATOM      4  C   UNL     1     136.322 125.543 121.489  1.00  0.00    +0.333 C 
ATOM      5  H   UNL     1     135.142 124.064 122.279  1.00  0.00    +0.348 HD
BRANCH   3   6
ATOM      6  C   UNL     1     136.230 124.746 123.865  1.00  0.00    +0.298 C 
BRANCH   6   7
ATOM      7  C   UNL     1     135.646 123.639 124.700  1.00  0.00    +0.006 A 
ATOM      8  C   UNL     1     135.585 122.328 124.199  1.00  0.00    +0.009 A 
ATOM      9  C   UNL     1     135.172 123.894 125.995  1.00  0.00    +0.009 A 
ATOM     10  C   UNL     1     135.067 121.296 124.982  1.00  0.00    +0.001 A 
ATOM     11  C   UNL     1     134.655 122.859 126.775  1.00  0.00    +0.001 A 
ATOM     12  C   UNL     1     134.605 121.561 126.269  1.00  0.00    +0.000 A 
ENDBRANCH   6   7
ENDBRANCH   3   6
ENDBRANCH   2   3
ENDBRANCH   1   2
BRANCH   1  13
ATOM     13  C   UNL     1     131.930 125.401 123.876  1.00  0.00    -0.042 A 
ATOM     14  C   UNL     1     131.303 126.652 123.805  1.00  0.00    +0.004 A 
ATOM     15  C   UNL     1     131.602 124.532 124.931  1.00  0.00    +0.019 A 
ATOM     16  C   UNL     1     130.350 127.020 124.754  1.00  0.00    +0.001 A 
ATOM     17  C   UNL     1     130.643 124.899 125.889  1.00  0.00    +0.060 A 
ATOM     18  C   UNL     1     130.017 126.146 125.789  1.00  0.00    +0.016 A 
BRANCH  17  19
ATOM     19  C   UNL     1     130.253 124.005 127.014  1.00  0.00    +0.337 C 
ATOM     20  O   UNL     1     130.756 122.911 127.208  1.00  0.00    -0.246 OA
BRANCH  19  21
ATOM     21  O   UNL     1     129.297 124.590 127.777  1.00  0.00    -0.465 OA
ATOM     22  C   UNL     1     128.237 123.705 128.152  1.00  0.00    +0.282 C 
ENDBRANCH  19  21
ENDBRANCH  17  19
ENDBRANCH   1  13
TORSDOF 7
ENDMDL
MODEL 13
REMARK VINA RESULT:    -6.236      2.286      4.902
REMARK INTER + INTRA:         -11.313
REMARK INTER:                 -10.126
REMARK INTRA:                  -1.187
REMARK UNBOUND:                -2.525
REMARK SMILES COC(=O)c1cccc(CC[N@@H+](C)Cc2ccccc2)c1
REMARK SMILES IDX 10 1 11 2 12 3 13 4 14 6 15 7 16 8 20 9 17 10 19 11 18 12
REMARK SMILES IDX 9 13 8 14 21 15 7 16 5 17 6 18 3 19 4 20 2 21 1 22
REMARK H PARENT 12 5
REMARK INDEX MAP 4 1 3 2 2 3 1 4 25 5 15 6 16 7 17 8 21 9 18 10 20 11 19 12
REMARK INDEX MAP 5 13 6 14 10 15 7 16 9 17 8 18 11 19 12 20 13 21 14 22
ROOT
ATOM      1  C   UNL     1     133.147 121.507 126.316  1.00  0.00    +0.097 C 
ENDROOT
BRANCH   1   2
ATOM      2  C   UNL     1     134.454 121.622 127.117  1.00  0.00    +0.267 C 
BRANCH   2   3
ATOM      3  N   UNL     1     135.665 121.796 126.216  1.00  0.00    -0.333 N 
ATOM      4  C   UNL     1     136.865 121.021 126.687  1.00  0.00    +0.333 C 
ATOM      5  H   UNL     1     135.927 122.789 126.240  1.00  0.00    +0.348 HD
BRANCH   3   6
ATOM      6  C   UNL     1     135.331 121.512 124.765  1.00  0.00    +0.298 C 
BRANCH   6   7
ATOM      7  C   UNL     1     135.564 122.696 123.868  1.00  0.00    +0.006 A 
ATOM      8  C   UNL     1     135.222 122.635 122.506  1.00  0.00    +0.009 A 
ATOM      9  C   UNL     1     136.107 123.885 124.379  1.00  0.00    +0.009 A 
ATOM     10  C   UNL     1     135.413 123.742 121.679  1.00  0.00    +0.001 A 
ATOM     11  C   UNL     1     136.296 124.990 123.547  1.00  0.00    +0.001 A 
ATOM     12  C   UNL     1     135.947 124.918 122.200  1.00  0.00    +0.000 A 
ENDBRANCH   6   7
ENDBRANCH   3   6
ENDBRANCH   2   3
ENDBRANCH   1   2
BRANCH   1  13
ATOM     13  C   UNL     1     132.281 122.742 126.415  1.00  0.00    -0.042 A 
ATOM     14  C   UNL     1     131.018 122.674 127.016  1.00  0.00    +0.004 A 
ATOM     15  C   UNL     1     132.741 123.977 125.926  1.00  0.00    +0.019 A 
ATOM     16  C   UNL     1     130.235 123.822 127.147  1.00  0.00    +0.001 A 
ATOM     17  C   UNL     1     131.956 125.134 126.056  1.00  0.00    +0.060 A 
ATOM     18  C   UNL     1     130.704 125.047 126.675  1.00  0.00    +0.016 A 
BRANCH  17  19
ATOM     19  C   UNL     1     132.408 126.466 125.568  1.00  0.00    +0.337 C 
ATOM     20  O   UNL     1     132.159 127.512 126.144  1.00  0.00    -0.246 OA
BRANCH  19  21
ATOM     21  O   UNL     1     133.134 126.335 124.430  1.00  0.00    -0.465 OA
ATOM     22  C   UNL     1     132.346 126.027 123.276  1.00  0.00    +0.282 C 
ENDBRANCH  19  21
ENDBRANCH  17  19
ENDBRANCH   1  13
TORSDOF 7
ENDMDL
MODEL 14
REMARK VINA RESULT:    -6.100      3.791      5.803
REMARK INTER + INTRA:         -11.121
REMARK INTER:                 -10.694
REMARK INTRA:                  -0.427
REMARK UNBOUND:                -2.525
REMARK SMILES COC(=O)c1cccc(CC[N@@H+](C)Cc2ccccc2)c1
REMARK SMILES IDX 10 1 11 2 12 3 13 4 14 6 15 7 16 8 20 9 17 10 19 11 18 12
REMARK SMILES IDX 9 13 8 14 21 15 7 16 5 17 6 18 3 19 4 20 2 21 1 22
REMARK H PARENT 12 5
REMARK INDEX MAP 4 1 3 2 2 3 1 4 25 5 15 6 16 7 17 8 21 9 18 10 20 11 19 12
REMARK INDEX MAP 5 13 6 14 10 15 7 16 9 17 8 18 11 19 12 20 13 21 14 22
ROOT
ATOM      1  C   UNL     1     131.735 125.772 125.793  1.00  0.00    +0.097 C 
ENDROOT
BRANCH   1   2
ATOM      2  C   UNL     1     130.233 125.885 126.100  1.00  0.00    +0.267 C 
BRANCH   2   3
ATOM      3  N   UNL     1     129.775 127.331 126.197  1.00  0.00    -0.333 N 
ATOM      4  C   UNL     1     130.038 127.943 127.545  1.00  0.00    +0.333 C 
ATOM      5  H   UNL     1     128.756 127.341 126.061  1.00  0.00    +0.348 HD
BRANCH   3   6
ATOM      6  C   UNL     1     130.331 128.173 125.065  1.00  0.00    +0.298 C 
BRANCH   6   7
ATOM      7  C   UNL     1     129.330 128.415 123.969  1.00  0.00    +0.006 A 
ATOM      8  C   UNL     1     129.337 129.625 123.254  1.00  0.00    +0.009 A 
ATOM      9  C   UNL     1     128.387 127.433 123.631  1.00  0.00    +0.009 A 
ATOM     10  C   UNL     1     128.425 129.841 122.220  1.00  0.00    +0.001 A 
ATOM     11  C   UNL     1     127.478 127.653 122.595  1.00  0.00    +0.001 A 
ATOM     12  C   UNL     1     127.499 128.854 121.890  1.00  0.00    +0.000 A 
ENDBRANCH   6   7
ENDBRANCH   3   6
ENDBRANCH   2   3
ENDBRANCH   1   2
BRANCH   1  13
ATOM     13  C   UNL     1     132.275 124.374 125.986  1.00  0.00    -0.042 A 
ATOM     14  C   UNL     1     131.485 123.386 126.589  1.00  0.00    +0.004 A 
ATOM     15  C   UNL     1     133.567 124.040 125.545  1.00  0.00    +0.019 A 
ATOM     16  C   UNL     1     131.965 122.084 126.730  1.00  0.00    +0.001 A 
ATOM     17  C   UNL     1     134.054 122.730 125.684  1.00  0.00    +0.060 A 
ATOM     18  C   UNL     1     133.242 121.755 126.275  1.00  0.00    +0.016 A 
BRANCH  17  19
ATOM     19  C   UNL     1     135.409 122.327 125.218  1.00  0.00    +0.337 C 
ATOM     20  O   UNL     1     136.119 123.036 124.525  1.00  0.00    -0.246 OA
BRANCH  19  21
ATOM     21  O   UNL     1     135.728 121.095 125.689  1.00  0.00    -0.465 OA
ATOM     22  C   UNL     1     136.888 121.081 126.525  1.00  0.00    +0.282 C 
ENDBRANCH  19  21
ENDBRANCH  17  19
ENDBRANCH   1  13
TORSDOF 7
ENDMDL
MODEL 15
REMARK VINA RESULT:    -6.008      3.624      6.807
REMARK INTER + INTRA:         -10.991
REMARK INTER:                 -10.467
REMARK INTRA:                  -0.524
REMARK UNBOUND:                -2.525
REMARK SMILES COC(=O)c1cccc(CC[N@@H+](C)Cc2ccccc2)c1
REMARK SMILES IDX 10 1 11 2 12 3 13 4 14 6 15 7 16 8 20 9 17 10 19 11 18 12
REMARK SMILES IDX 9 13 8 14 21 15 7 16 5 17 6 18 3 19 4 20 2 21 1 22
REMARK H PARENT 12 5
REMARK INDEX MAP 4 1 3 2 2 3 1 4 25 5 15 6 16 7 17 8 21 9 18 10 20 11 19 12
REMARK INDEX MAP 5 13 6 14 10 15 7 16 9 17 8 18 11 19 12 20 13 21 14 22
ROOT
ATOM      1  C   UNL     1     132.943 125.263 122.474  1.00  0.00    +0.097 C 
ENDROOT
BRANCH   1   2
ATOM      2  C   UNL     1     134.156 124.363 122.192  1.00  0.00    +0.267 C 
BRANCH   2   3
ATOM      3  N   UNL     1     135.243 125.090 121.419  1.00  0.00    -0.333 N 
ATOM      4  C   UNL     1     136.114 125.950 122.294  1.00  0.00    +0.333 C 
ATOM      5  H   UNL     1     134.778 125.722 120.754  1.00  0.00    +0.348 HD
BRANCH   3   6
ATOM      6  C   UNL     1     136.053 124.140 120.558  1.00  0.00    +0.298 C 
BRANCH   6   7
ATOM      7  C   UNL     1     135.330 123.722 119.307  1.00  0.00    +0.006 A 
ATOM      8  C   UNL     1     135.411 122.396 118.849  1.00  0.00    +0.009 A 
ATOM      9  C   UNL     1     134.552 124.642 118.590  1.00  0.00    +0.009 A 
ATOM     10  C   UNL     1     134.720 122.001 117.703  1.00  0.00    +0.001 A 
ATOM     11  C   UNL     1     133.862 124.242 117.444  1.00  0.00    +0.001 A 
ATOM     12  C   UNL     1     133.945 122.923 117.004  1.00  0.00    +0.000 A 
ENDBRANCH   6   7
ENDBRANCH   3   6
ENDBRANCH   2   3
ENDBRANCH   1   2
BRANCH   1  13
ATOM     13  C   UNL     1     132.347 125.040 123.845  1.00  0.00    -0.042 A 
ATOM     14  C   UNL     1     132.436 123.785 124.461  1.00  0.00    +0.004 A 
ATOM     15  C   UNL     1     131.715 126.093 124.528  1.00  0.00    +0.019 A 
ATOM     16  C   UNL     1     131.925 123.589 125.744  1.00  0.00    +0.001 A 
ATOM     17  C   UNL     1     131.199 125.900 125.820  1.00  0.00    +0.060 A 
ATOM     18  C   UNL     1     131.313 124.643 126.423  1.00  0.00    +0.016 A 
BRANCH  17  19
ATOM     19  C   UNL     1     130.535 126.990 126.588  1.00  0.00    +0.337 C 
ATOM     20  O   UNL     1     129.336 127.024 126.805  1.00  0.00    -0.246 OA
BRANCH  19  21
ATOM     21  O   UNL     1     131.450 127.897 127.013  1.00  0.00    -0.465 OA
ATOM     22  C   UNL     1     131.226 128.356 128.350  1.00  0.00    +0.282 C 
ENDBRANCH  19  21
ENDBRANCH  17  19
ENDBRANCH   1  13
TORSDOF 7
ENDMDL
MODEL 16
REMARK VINA RESULT:    -5.995      3.152      4.797
REMARK INTER + INTRA:         -10.973
REMARK INTER:                 -10.483
REMARK INTRA:                  -0.491
REMARK UNBOUND:                -2.525
REMARK SMILES COC(=O)c1cccc(CC[N@@H+](C)Cc2ccccc2)c1
REMARK SMILES IDX 10 1 11 2 12 3 13 4 14 6 15 7 16 8 20 9 17 10 19 11 18 12
REMARK SMILES IDX 9 13 8 14 21 15 7 16 5 17 6 18 3 19 4 20 2 21 1 22
REMARK H PARENT 12 5
REMARK INDEX MAP 4 1 3 2 2 3 1 4 25 5 15 6 16 7 17 8 21 9 18 10 20 11 19 12
REMARK INDEX MAP 5 13 6 14 10 15 7 16 9 17 8 18 11 19 12 20 13 21 14 22
ROOT
ATOM      1  C   UNL     1     131.473 123.878 126.366  1.00  0.00    +0.097 C 
ENDROOT
BRANCH   1   2
ATOM      2  C   UNL     1     131.799 125.370 126.543  1.00  0.00    +0.267 C 
BRANCH   2   3
ATOM      3  N   UNL     1     130.708 126.266 125.982  1.00  0.00    -0.333 N 
ATOM      4  C   UNL     1     130.092 127.165 127.019  1.00  0.00    +0.333 C 
ATOM      5  H   UNL     1     129.956 125.657 125.635  1.00  0.00    +0.348 HD
BRANCH   3   6
ATOM      6  C   UNL     1     131.184 127.035 124.765  1.00  0.00    +0.298 C 
BRANCH   6   7
ATOM      7  C   UNL     1     130.060 127.691 124.010  1.00  0.00    +0.006 A 
ATOM      8  C   UNL     1     128.932 126.946 123.627  1.00  0.00    +0.009 A 
ATOM      9  C   UNL     1     130.112 129.056 123.693  1.00  0.00    +0.009 A 
ATOM     10  C   UNL     1     127.877 127.559 122.950  1.00  0.00    +0.001 A 
ATOM     11  C   UNL     1     129.054 129.665 123.016  1.00  0.00    +0.001 A 
ATOM     12  C   UNL     1     127.938 128.917 122.647  1.00  0.00    +0.000 A 
ENDBRANCH   6   7
ENDBRANCH   3   6
ENDBRANCH   2   3
ENDBRANCH   1   2
BRANCH   1  13
ATOM     13  C   UNL     1     132.685 123.044 126.022  1.00  0.00    -0.042 A 
ATOM     14  C   UNL     1     132.715 121.677 126.329  1.00  0.00    +0.004 A 
ATOM     15  C   UNL     1     133.789 123.622 125.372  1.00  0.00    +0.019 A 
ATOM     16  C   UNL     1     133.815 120.896 125.974  1.00  0.00    +0.001 A 
ATOM     17  C   UNL     1     134.898 122.840 125.013  1.00  0.00    +0.060 A 
ATOM     18  C   UNL     1     134.900 121.473 125.314  1.00  0.00    +0.016 A 
BRANCH  17  19
ATOM     19  C   UNL     1     136.083 123.406 124.310  1.00  0.00    +0.337 C 
ATOM     20  O   UNL     1     136.874 124.170 124.836  1.00  0.00    -0.246 OA
BRANCH  19  21
ATOM     21  O   UNL     1     136.153 122.933 123.040  1.00  0.00    -0.465 OA
ATOM     22  C   UNL     1     135.337 123.654 122.112  1.00  0.00    +0.282 C 
ENDBRANCH  19  21
ENDBRANCH  17  19
ENDBRANCH   1  13
TORSDOF 7
ENDMDL
MODEL 17
REMARK VINA RESULT:    -5.958      4.604      7.388
REMARK INTER + INTRA:         -10.921
REMARK INTER:                 -10.279
REMARK INTRA:                  -0.642
REMARK UNBOUND:                -2.525
REMARK SMILES COC(=O)c1cccc(CC[N@@H+](C)Cc2ccccc2)c1
REMARK SMILES IDX 10 1 11 2 12 3 13 4 14 6 15 7 16 8 20 9 17 10 19 11 18 12
REMARK SMILES IDX 9 13 8 14 21 15 7 16 5 17 6 18 3 19 4 20 2 21 1 22
REMARK H PARENT 12 5
REMARK INDEX MAP 4 1 3 2 2 3 1 4 25 5 15 6 16 7 17 8 21 9 18 10 20 11 19 12
REMARK INDEX MAP 5 13 6 14 10 15 7 16 9 17 8 18 11 19 12 20 13 21 14 22
ROOT
ATOM      1  C   UNL     1     132.343 124.784 126.252  1.00  0.00    +0.097 C 
ENDROOT
BRANCH   1   2
ATOM      2  C   UNL     1     133.109 125.271 125.012  1.00  0.00    +0.267 C 
BRANCH   2   3
ATOM      3  N   UNL     1     132.849 124.397 123.797  1.00  0.00    -0.333 N 
ATOM      4  C   UNL     1     132.032 125.087 122.739  1.00  0.00    +0.333 C 
ATOM      5  H   UNL     1     132.300 123.587 124.112  1.00  0.00    +0.348 HD
BRANCH   3   6
ATOM      6  C   UNL     1     134.132 123.811 123.241  1.00  0.00    +0.298 C 
BRANCH   6   7
ATOM      7  C   UNL     1     134.803 122.860 124.195  1.00  0.00    +0.006 A 
ATOM      8  C   UNL     1     136.175 122.982 124.473  1.00  0.00    +0.009 A 
ATOM      9  C   UNL     1     134.067 121.851 124.834  1.00  0.00    +0.009 A 
ATOM     10  C   UNL     1     136.792 122.117 125.377  1.00  0.00    +0.001 A 
ATOM     11  C   UNL     1     134.690 120.988 125.738  1.00  0.00    +0.001 A 
ATOM     12  C   UNL     1     136.049 121.124 126.009  1.00  0.00    +0.000 A 
ENDBRANCH   6   7
ENDBRANCH   3   6
ENDBRANCH   2   3
ENDBRANCH   1   2
BRANCH   1  13
ATOM     13  C   UNL     1     131.305 125.771 126.733  1.00  0.00    -0.042 A 
ATOM     14  C   UNL     1     131.520 127.149 126.593  1.00  0.00    +0.004 A 
ATOM     15  C   UNL     1     130.103 125.322 127.307  1.00  0.00    +0.019 A 
ATOM     16  C   UNL     1     130.544 128.061 126.997  1.00  0.00    +0.001 A 
ATOM     17  C   UNL     1     129.119 126.237 127.714  1.00  0.00    +0.060 A 
ATOM     18  C   UNL     1     129.347 127.608 127.550  1.00  0.00    +0.016 A 
BRANCH  17  19
ATOM     19  C   UNL     1     127.825 125.806 128.312  1.00  0.00    +0.337 C 
ATOM     20  O   UNL     1     126.826 126.506 128.324  1.00  0.00    -0.246 OA
BRANCH  19  21
ATOM     21  O   UNL     1     127.923 124.546 128.803  1.00  0.00    -0.465 OA
ATOM     22  C   UNL     1     127.009 124.272 129.869  1.00  0.00    +0.282 C 
ENDBRANCH  19  21
ENDBRANCH  17  19
ENDBRANCH   1  13
TORSDOF 7
ENDMDL
MODEL 18
REMARK VINA RESULT:    -5.909      4.205      7.100
REMARK INTER + INTRA:         -10.852
REMARK INTER:                 -10.604
REMARK INTRA:                  -0.249
REMARK UNBOUND:                -2.525
REMARK SMILES COC(=O)c1cccc(CC[N@@H+](C)Cc2ccccc2)c1
REMARK SMILES IDX 10 1 11 2 12 3 13 4 14 6 15 7 16 8 20 9 17 10 19 11 18 12
REMARK SMILES IDX 9 13 8 14 21 15 7 16 5 17 6 18 3 19 4 20 2 21 1 22
REMARK H PARENT 12 5
REMARK INDEX MAP 4 1 3 2 2 3 1 4 25 5 15 6 16 7 17 8 21 9 18 10 20 11 19 12
REMARK INDEX MAP 5 13 6 14 10 15 7 16 9 17 8 18 11 19 12 20 13 21 14 22
ROOT
ATOM      1  C   UNL     1     131.302 123.331 126.093  1.00  0.00    +0.097 C 
ENDROOT
BRANCH   1   2
ATOM      2  C   UNL     1     132.582 124.021 125.595  1.00  0.00    +0.267 C 
BRANCH   2   3
ATOM      3  N   UNL     1     132.528 124.324 124.107  1.00  0.00    -0.333 N 
ATOM      4  C   UNL     1     132.624 125.794 123.802  1.00  0.00    +0.333 C 
ATOM      5  H   UNL     1     131.613 124.010 123.761  1.00  0.00    +0.348 HD
BRANCH   3   6
ATOM      6  C   UNL     1     133.544 123.508 123.331  1.00  0.00    +0.298 C 
BRANCH   6   7
ATOM      7  C   UNL     1     134.558 122.838 124.217  1.00  0.00    +0.006 A 
ATOM      8  C   UNL     1     135.762 123.488 124.537  1.00  0.00    +0.009 A 
ATOM      9  C   UNL     1     134.310 121.565 124.751  1.00  0.00    +0.009 A 
ATOM     10  C   UNL     1     136.692 122.878 125.380  1.00  0.00    +0.001 A 
ATOM     11  C   UNL     1     135.243 120.959 125.594  1.00  0.00    +0.001 A 
ATOM     12  C   UNL     1     136.431 121.617 125.909  1.00  0.00    +0.000 A 
ENDBRANCH   6   7
ENDBRANCH   3   6
ENDBRANCH   2   3
ENDBRANCH   1   2
BRANCH   1  13
ATOM     13  C   UNL     1     130.408 124.249 126.894  1.00  0.00    -0.042 A 
ATOM     14  C   UNL     1     129.275 123.743 127.544  1.00  0.00    +0.004 A 
ATOM     15  C   UNL     1     130.712 125.615 127.015  1.00  0.00    +0.019 A 
ATOM     16  C   UNL     1     128.472 124.580 128.320  1.00  0.00    +0.001 A 
ATOM     17  C   UNL     1     129.907 126.461 127.794  1.00  0.00    +0.060 A 
ATOM     18  C   UNL     1     128.789 125.932 128.449  1.00  0.00    +0.016 A 
BRANCH  17  19
ATOM     19  C   UNL     1     130.199 127.912 127.964  1.00  0.00    +0.337 C 
ATOM     20  O   UNL     1     129.855 128.764 127.162  1.00  0.00    -0.246 OA
BRANCH  19  21
ATOM     21  O   UNL     1     130.867 128.130 129.124  1.00  0.00    -0.465 OA
ATOM     22  C   UNL     1     132.055 128.911 128.967  1.00  0.00    +0.282 C 
ENDBRANCH  19  21
ENDBRANCH  17  19
ENDBRANCH   1  13
TORSDOF 7
ENDMDL
MODEL 19
REMARK VINA RESULT:    -5.903      3.089      5.728
REMARK INTER + INTRA:         -10.843
REMARK INTER:                 -10.006
REMARK INTRA:                  -0.838
REMARK UNBOUND:                -2.525
REMARK SMILES COC(=O)c1cccc(CC[N@@H+](C)Cc2ccccc2)c1
REMARK SMILES IDX 10 1 11 2 12 3 13 4 14 6 15 7 16 8 20 9 17 10 19 11 18 12
REMARK SMILES IDX 9 13 8 14 21 15 7 16 5 17 6 18 3 19 4 20 2 21 1 22
REMARK H PARENT 12 5
REMARK INDEX MAP 4 1 3 2 2 3 1 4 25 5 15 6 16 7 17 8 21 9 18 10 20 11 19 12
REMARK INDEX MAP 5 13 6 14 10 15 7 16 9 17 8 18 11 19 12 20 13 21 14 22
ROOT
ATOM      1  C   UNL     1     132.765 122.873 124.436  1.00  0.00    +0.097 C 
ENDROOT
BRANCH   1   2
ATOM      2  C   UNL     1     134.191 122.840 125.008  1.00  0.00    +0.267 C 
BRANCH   2   3
ATOM      3  N   UNL     1     135.060 123.951 124.442  1.00  0.00    -0.333 N 
ATOM      4  C   UNL     1     135.939 124.597 125.478  1.00  0.00    +0.333 C 
ATOM      5  H   UNL     1     134.433 124.684 124.089  1.00  0.00    +0.348 HD
BRANCH   3   6
ATOM      6  C   UNL     1     135.846 123.488 123.231  1.00  0.00    +0.298 C 
BRANCH   6   7
ATOM      7  C   UNL     1     135.327 124.063 121.941  1.00  0.00    +0.006 A 
ATOM      8  C   UNL     1     134.498 125.198 121.952  1.00  0.00    +0.009 A 
ATOM      9  C   UNL     1     135.677 123.490 120.710  1.00  0.00    +0.009 A 
ATOM     10  C   UNL     1     134.037 125.747 120.755  1.00  0.00    +0.001 A 
ATOM     11  C   UNL     1     135.214 124.044 119.515  1.00  0.00    +0.001 A 
ATOM     12  C   UNL     1     134.397 125.172 119.540  1.00  0.00    +0.000 A 
ENDBRANCH   6   7
ENDBRANCH   3   6
ENDBRANCH   2   3
ENDBRANCH   1   2
BRANCH   1  13
ATOM     13  C   UNL     1     131.821 123.730 125.249  1.00  0.00    -0.042 A 
ATOM     14  C   UNL     1     131.196 123.210 126.390  1.00  0.00    +0.004 A 
ATOM     15  C   UNL     1     131.575 125.064 124.884  1.00  0.00    +0.019 A 
ATOM     16  C   UNL     1     130.359 124.012 127.166  1.00  0.00    +0.001 A 
ATOM     17  C   UNL     1     130.733 125.875 125.662  1.00  0.00    +0.060 A 
ATOM     18  C   UNL     1     130.132 125.340 126.807  1.00  0.00    +0.016 A 
BRANCH  17  19
ATOM     19  C   UNL     1     130.455 127.299 125.323  1.00  0.00    +0.337 C 
ATOM     20  O   UNL     1     130.252 127.690 124.186  1.00  0.00    -0.246 OA
BRANCH  19  21
ATOM     21  O   UNL     1     130.444 128.061 126.444  1.00  0.00    -0.465 OA
ATOM     22  C   UNL     1     129.194 128.715 126.682  1.00  0.00    +0.282 C 
ENDBRANCH  19  21
ENDBRANCH  17  19
ENDBRANCH   1  13
TORSDOF 7
ENDMDL
MODEL 20
REMARK VINA RESULT:    -5.894      2.928      4.443
REMARK INTER + INTRA:         -10.831
REMARK INTER:                 -10.325
REMARK INTRA:                  -0.506
REMARK UNBOUND:                -2.525
REMARK SMILES COC(=O)c1cccc(CC[N@@H+](C)Cc2ccccc2)c1
REMARK SMILES IDX 10 1 11 2 12 3 13 4 14 6 15 7 16 8 20 9 17 10 19 11 18 12
REMARK SMILES IDX 9 13 8 14 21 15 7 16 5 17 6 18 3 19 4 20 2 21 1 22
REMARK H PARENT 12 5
REMARK INDEX MAP 4 1 3 2 2 3 1 4 25 5 15 6 16 7 17 8 21 9 18 10 20 11 19 12
REMARK INDEX MAP 5 13 6 14 10 15 7 16 9 17 8 18 11 19 12 20 13 21 14 22
ROOT
ATOM      1  C   UNL     1     132.105 123.274 126.264  1.00  0.00    +0.097 C 
ENDROOT
BRANCH   1   2
ATOM      2  C   UNL     1     131.117 123.888 125.259  1.00  0.00    +0.267 C 
BRANCH   2   3
ATOM      3  N   UNL     1     131.236 125.401 125.189  1.00  0.00    -0.333 N 
ATOM      4  C   UNL     1     131.537 125.905 123.804  1.00  0.00    +0.333 C 
ATOM      5  H   UNL     1     132.030 125.676 125.782  1.00  0.00    +0.348 HD
BRANCH   3   6
ATOM      6  C   UNL     1     130.032 126.088 125.802  1.00  0.00    +0.298 C 
BRANCH   6   7
ATOM      7  C   UNL     1     130.370 126.864 127.046  1.00  0.00    +0.006 A 
ATOM      8  C   UNL     1     129.654 126.647 128.235  1.00  0.00    +0.009 A 
ATOM      9  C   UNL     1     131.414 127.801 127.043  1.00  0.00    +0.009 A 
ATOM     10  C   UNL     1     129.983 127.347 129.396  1.00  0.00    +0.001 A 
ATOM     11  C   UNL     1     131.740 128.498 128.207  1.00  0.00    +0.001 A 
ATOM     12  C   UNL     1     131.026 128.269 129.382  1.00  0.00    +0.000 A 
ENDBRANCH   6   7
ENDBRANCH   3   6
ENDBRANCH   2   3
ENDBRANCH   1   2
BRANCH   1  13
ATOM     13  C   UNL     1     133.360 122.743 125.610  1.00  0.00    -0.042 A 
ATOM     14  C   UNL     1     133.975 121.581 126.095  1.00  0.00    +0.004 A 
ATOM     15  C   UNL     1     133.915 123.394 124.495  1.00  0.00    +0.019 A 
ATOM     16  C   UNL     1     135.108 121.065 125.467  1.00  0.00    +0.001 A 
ATOM     17  C   UNL     1     135.056 122.878 123.860  1.00  0.00    +0.060 A 
ATOM     18  C   UNL     1     135.644 121.707 124.351  1.00  0.00    +0.016 A 
BRANCH  17  19
ATOM     19  C   UNL     1     135.669 123.525 122.666  1.00  0.00    +0.337 C 
ATOM     20  O   UNL     1     136.183 124.630 122.692  1.00  0.00    -0.246 OA
BRANCH  19  21
ATOM     21  O   UNL     1     135.588 122.707 121.588  1.00  0.00    -0.465 OA
ATOM     22  C   UNL     1     135.672 123.395 120.336  1.00  0.00    +0.282 C 
ENDBRANCH  19  21
ENDBRANCH  17  19
ENDBRANCH   1  13
TORSDOF 7
ENDMDL
