MODEL 1
REMARK VINA RESULT:   -10.451      0.000      0.000
REMARK INTER + INTRA:         -14.009
REMARK INTER:                 -12.895
REMARK INTRA:                  -1.114
REMARK UNBOUND:                -1.114
REMARK SMILES Fc1ccc([C@@H]2CC[NH2+]C[C@H]2COc2ccc3c(c2)OCO3)cc1
REMARK SMILES IDX 6 1 7 2 8 3 9 4 10 5 11 6 5 9 2 10 3 11 24 12 4 13 23 14
REMARK SMILES IDX 1 15 12 16 13 17 14 18 15 19 19 20 16 21 18 22 17 23 20 24
REMARK SMILES IDX 22 25 21 26
REMARK H PARENT 9 7 9 8
REMARK INDEX MAP 8 1 9 2 10 3 11 4 12 5 13 6 34 7 35 8 5 9 2 10 3 11 7 12 4 13
REMARK INDEX MAP 6 14 1 15 14 16 15 17 16 18 17 19 24 20 18 21 23 22 19 23
REMARK INDEX MAP 22 24 20 25 21 26
ROOT
ATOM      1  C   UNL     1     136.261 124.965 124.718  1.00  0.00    +0.037 C 
ATOM      2  C   UNL     1     137.229 125.311 125.870  1.00  0.00    +0.070 C 
ATOM      3  C   UNL     1     138.098 126.510 125.542  1.00  0.00    +0.261 C 
ATOM      4  N   UNL     1     137.216 127.659 125.193  1.00  0.00    -0.346 N 
ATOM      5  C   UNL     1     136.336 127.401 124.018  1.00  0.00    +0.268 C 
ATOM      6  C   UNL     1     135.420 126.204 124.291  1.00  0.00    +0.089 C 
ATOM      7  H   UNL     1     136.645 127.918 126.011  1.00  0.00    +0.346 HD
ATOM      8  H   UNL     1     137.804 128.483 125.001  1.00  0.00    +0.346 HD
ENDROOT
BRANCH   1   9
ATOM      9  C   UNL     1     135.441 123.750 125.116  1.00  0.00    -0.044 A 
ATOM     10  C   UNL     1     133.896 121.544 125.882  1.00  0.00    +0.123 A 
ATOM     11  C   UNL     1     134.918 121.377 124.958  1.00  0.00    +0.039 A 
ATOM     12  C   UNL     1     133.628 122.791 126.428  1.00  0.00    +0.039 A 
ATOM     13  C   UNL     1     135.690 122.476 124.575  1.00  0.00    +0.007 A 
ATOM     14  C   UNL     1     134.396 123.893 126.047  1.00  0.00    +0.007 A 
ATOM     15  F   UNL     1     133.161 120.488 126.251  1.00  0.00    -0.207 F 
ENDBRANCH   1   9
BRANCH   6  16
ATOM     16  C   UNL     1     134.580 125.958 123.017  1.00  0.00    +0.239 C 
BRANCH  16  17
ATOM     17  O   UNL     1     135.318 126.176 121.822  1.00  0.00    -0.493 OA
BRANCH  17  18
ATOM     18  C   UNL     1     135.226 125.270 120.803  1.00  0.00    +0.123 A 
ATOM     19  C   UNL     1     135.906 124.059 121.047  1.00  0.00    +0.050 A 
ATOM     20  C   UNL     1     134.537 125.448 119.602  1.00  0.00    +0.097 A 
ATOM     21  C   UNL     1     135.896 123.018 120.113  1.00  0.00    +0.054 A 
ATOM     22  C   UNL     1     134.542 124.403 118.697  1.00  0.00    +0.169 A 
ATOM     23  C   UNL     1     135.201 123.223 118.944  1.00  0.00    +0.166 A 
ATOM     24  O   UNL     1     133.915 124.405 117.489  1.00  0.00    -0.453 OA
ATOM     25  O   UNL     1     135.075 122.335 117.924  1.00  0.00    -0.454 OA
ATOM     26  C   UNL     1     134.290 123.102 116.988  1.00  0.00    +0.468 C 
ENDBRANCH  17  18
ENDBRANCH  16  17
ENDBRANCH   6  16
TORSDOF 4
ENDMDL
MODEL 2
REMARK VINA RESULT:    -9.790      2.463      3.665
REMARK INTER + INTRA:         -13.194
REMARK INTER:                 -12.117
REMARK INTRA:                  -1.077
REMARK UNBOUND:                -1.114
REMARK SMILES Fc1ccc([C@@H]2CC[NH2+]C[C@H]2COc2ccc3c(c2)OCO3)cc1
REMARK SMILES IDX 6 1 7 2 8 3 9 4 10 5 11 6 5 9 2 10 3 11 24 12 4 13 23 14
REMARK SMILES IDX 1 15 12 16 13 17 14 18 15 19 19 20 16 21 18 22 17 23 20 24
REMARK SMILES IDX 22 25 21 26
REMARK H PARENT 9 7 9 8
REMARK INDEX MAP 8 1 9 2 10 3 11 4 12 5 13 6 34 7 35 8 5 9 2 10 3 11 7 12 4 13
REMARK INDEX MAP 6 14 1 15 14 16 15 17 16 18 17 19 24 20 18 21 23 22 19 23
REMARK INDEX MAP 22 24 20 25 21 26
ROOT
ATOM      1  C   UNL     1     132.771 124.066 126.311  1.00  0.00    +0.037 C 
ATOM      2  C   UNL     1     131.412 123.368 126.530  1.00  0.00    +0.070 C 
ATOM      3  C   UNL     1     130.261 124.356 126.549  1.00  0.00    +0.261 C 
ATOM      4  N   UNL     1     130.285 125.142 125.283  1.00  0.00    -0.346 N 
ATOM      5  C   UNL     1     131.544 125.914 125.083  1.00  0.00    +0.268 C 
ATOM      6  C   UNL     1     132.748 124.969 125.041  1.00  0.00    +0.089 C 
ATOM      7  H   UNL     1     130.126 124.513 124.482  1.00  0.00    +0.346 HD
ATOM      8  H   UNL     1     129.485 125.791 125.280  1.00  0.00    +0.346 HD
ENDROOT
BRANCH   1   9
ATOM      9  C   UNL     1     133.868 123.015 126.319  1.00  0.00    -0.044 A 
ATOM     10  C   UNL     1     135.908 121.099 126.382  1.00  0.00    +0.123 A 
ATOM     11  C   UNL     1     134.967 121.063 125.363  1.00  0.00    +0.039 A 
ATOM     12  C   UNL     1     135.849 122.069 127.372  1.00  0.00    +0.039 A 
ATOM     13  C   UNL     1     133.948 122.018 125.330  1.00  0.00    +0.007 A 
ATOM     14  C   UNL     1     134.832 123.026 127.343  1.00  0.00    +0.007 A 
ATOM     15  F   UNL     1     136.886 120.185 126.409  1.00  0.00    -0.207 F 
ENDBRANCH   1   9
BRANCH   6  16
ATOM     16  C   UNL     1     134.018 125.837 124.891  1.00  0.00    +0.239 C 
BRANCH  16  17
ATOM     17  O   UNL     1     135.043 125.187 124.152  1.00  0.00    -0.493 OA
BRANCH  17  18
ATOM     18  C   UNL     1     134.928 125.087 122.793  1.00  0.00    +0.123 A 
ATOM     19  C   UNL     1     134.396 126.236 122.174  1.00  0.00    +0.050 A 
ATOM     20  C   UNL     1     135.288 123.985 122.015  1.00  0.00    +0.097 A 
ATOM     21  C   UNL     1     134.229 126.305 120.788  1.00  0.00    +0.054 A 
ATOM     22  C   UNL     1     135.115 124.079 120.648  1.00  0.00    +0.169 A 
ATOM     23  C   UNL     1     134.602 125.205 120.050  1.00  0.00    +0.166 A 
ATOM     24  O   UNL     1     135.423 123.107 119.746  1.00  0.00    -0.453 OA
ATOM     25  O   UNL     1     134.519 125.084 118.700  1.00  0.00    -0.454 OA
ATOM     26  C   UNL     1     135.005 123.739 118.514  1.00  0.00    +0.468 C 
ENDBRANCH  17  18
ENDBRANCH  16  17
ENDBRANCH   6  16
TORSDOF 4
ENDMDL
MODEL 3
REMARK VINA RESULT:    -9.304      2.626      3.922
REMARK INTER + INTRA:         -12.594
REMARK INTER:                 -11.393
REMARK INTRA:                  -1.201
REMARK UNBOUND:                -1.114
REMARK SMILES Fc1ccc([C@@H]2CC[NH2+]C[C@H]2COc2ccc3c(c2)OCO3)cc1
REMARK SMILES IDX 6 1 7 2 8 3 9 4 10 5 11 6 5 9 2 10 3 11 24 12 4 13 23 14
REMARK SMILES IDX 1 15 12 16 13 17 14 18 15 19 19 20 16 21 18 22 17 23 20 24
REMARK SMILES IDX 22 25 21 26
REMARK H PARENT 9 7 9 8
REMARK INDEX MAP 8 1 9 2 10 3 11 4 12 5 13 6 34 7 35 8 5 9 2 10 3 11 7 12 4 13
REMARK INDEX MAP 6 14 1 15 14 16 15 17 16 18 17 19 24 20 18 21 23 22 19 23
REMARK INDEX MAP 22 24 20 25 21 26
ROOT
ATOM      1  C   UNL     1     133.993 123.213 124.478  1.00  0.00    +0.037 C 
ATOM      2  C   UNL     1     133.581 122.194 125.562  1.00  0.00    +0.070 C 
ATOM      3  C   UNL     1     134.473 120.968 125.560  1.00  0.00    +0.261 C 
ATOM      4  N   UNL     1     135.889 121.406 125.718  1.00  0.00    -0.346 N 
ATOM      5  C   UNL     1     136.359 122.313 124.633  1.00  0.00    +0.268 C 
ATOM      6  C   UNL     1     135.502 123.581 124.590  1.00  0.00    +0.089 C 
ATOM      7  H   UNL     1     136.009 121.862 126.636  1.00  0.00    +0.346 HD
ATOM      8  H   UNL     1     136.493 120.573 125.750  1.00  0.00    +0.346 HD
ENDROOT
BRANCH   1   9
ATOM      9  C   UNL     1     133.046 124.399 124.536  1.00  0.00    -0.044 A 
ATOM     10  C   UNL     1     131.312 126.591 124.696  1.00  0.00    +0.123 A 
ATOM     11  C   UNL     1     131.558 126.001 123.465  1.00  0.00    +0.039 A 
ATOM     12  C   UNL     1     131.917 126.111 125.849  1.00  0.00    +0.039 A 
ATOM     13  C   UNL     1     132.423 124.908 123.382  1.00  0.00    +0.007 A 
ATOM     14  C   UNL     1     132.784 125.018 125.771  1.00  0.00    +0.007 A 
ATOM     15  F   UNL     1     130.479 127.636 124.773  1.00  0.00    -0.207 F 
ENDBRANCH   1   9
BRANCH   6  16
ATOM     16  C   UNL     1     136.005 124.445 123.411  1.00  0.00    +0.239 C 
BRANCH  16  17
ATOM     17  O   UNL     1     136.405 123.666 122.291  1.00  0.00    -0.493 OA
BRANCH  17  18
ATOM     18  C   UNL     1     135.798 123.869 121.083  1.00  0.00    +0.123 A 
ATOM     19  C   UNL     1     135.211 125.143 120.940  1.00  0.00    +0.050 A 
ATOM     20  C   UNL     1     135.727 122.952 120.033  1.00  0.00    +0.097 A 
ATOM     21  C   UNL     1     134.565 125.518 119.759  1.00  0.00    +0.054 A 
ATOM     22  C   UNL     1     135.085 123.348 118.876  1.00  0.00    +0.169 A 
ATOM     23  C   UNL     1     134.520 124.593 118.741  1.00  0.00    +0.166 A 
ATOM     24  O   UNL     1     134.935 122.587 117.758  1.00  0.00    -0.453 OA
ATOM     25  O   UNL     1     133.943 124.773 117.524  1.00  0.00    -0.454 OA
ATOM     26  C   UNL     1     134.176 123.486 116.917  1.00  0.00    +0.468 C 
ENDBRANCH  17  18
ENDBRANCH  16  17
ENDBRANCH   6  16
TORSDOF 4
ENDMDL
MODEL 4
REMARK VINA RESULT:    -9.257      3.729      6.130
REMARK INTER + INTRA:         -12.536
REMARK INTER:                 -11.447
REMARK INTRA:                  -1.089
REMARK UNBOUND:                -1.114
REMARK SMILES Fc1ccc([C@@H]2CC[NH2+]C[C@H]2COc2ccc3c(c2)OCO3)cc1
REMARK SMILES IDX 6 1 7 2 8 3 9 4 10 5 11 6 5 9 2 10 3 11 24 12 4 13 23 14
REMARK SMILES IDX 1 15 12 16 13 17 14 18 15 19 19 20 16 21 18 22 17 23 20 24
REMARK SMILES IDX 22 25 21 26
REMARK H PARENT 9 7 9 8
REMARK INDEX MAP 8 1 9 2 10 3 11 4 12 5 13 6 34 7 35 8 5 9 2 10 3 11 7 12 4 13
REMARK INDEX MAP 6 14 1 15 14 16 15 17 16 18 17 19 24 20 18 21 23 22 19 23
REMARK INDEX MAP 22 24 20 25 21 26
ROOT
ATOM      1  C   UNL     1     135.039 123.204 122.619  1.00  0.00    +0.037 C 
ATOM      2  C   UNL     1     136.474 123.316 122.058  1.00  0.00    +0.070 C 
ATOM      3  C   UNL     1     136.482 123.668 120.583  1.00  0.00    +0.261 C 
ATOM      4  N   UNL     1     135.709 124.927 120.388  1.00  0.00    -0.346 N 
ATOM      5  C   UNL     1     134.287 124.829 120.824  1.00  0.00    +0.268 C 
ATOM      6  C   UNL     1     134.209 124.486 122.314  1.00  0.00    +0.089 C 
ATOM      7  H   UNL     1     136.177 125.701 120.883  1.00  0.00    +0.346 HD
ATOM      8  H   UNL     1     135.741 125.185 119.392  1.00  0.00    +0.346 HD
ENDROOT
BRANCH   1   9
ATOM      9  C   UNL     1     135.116 122.836 124.091  1.00  0.00    -0.044 A 
ATOM     10  C   UNL     1     135.261 122.210 126.815  1.00  0.00    +0.123 A 
ATOM     11  C   UNL     1     135.107 121.191 125.887  1.00  0.00    +0.039 A 
ATOM     12  C   UNL     1     135.340 123.535 126.412  1.00  0.00    +0.039 A 
ATOM     13  C   UNL     1     135.034 121.501 124.527  1.00  0.00    +0.007 A 
ATOM     14  C   UNL     1     135.268 123.850 125.053  1.00  0.00    +0.007 A 
ATOM     15  F   UNL     1     135.334 121.910 128.118  1.00  0.00    -0.207 F 
ENDBRANCH   1   9
BRANCH   6  16
ATOM     16  C   UNL     1     132.715 124.343 122.683  1.00  0.00    +0.239 C 
BRANCH  16  17
ATOM     17  O   UNL     1     132.073 125.597 122.870  1.00  0.00    -0.493 OA
BRANCH  17  18
ATOM     18  C   UNL     1     131.543 125.902 124.094  1.00  0.00    +0.123 A 
ATOM     19  C   UNL     1     131.839 124.960 125.100  1.00  0.00    +0.050 A 
ATOM     20  C   UNL     1     130.774 127.026 124.401  1.00  0.00    +0.097 A 
ATOM     21  C   UNL     1     131.388 125.131 126.412  1.00  0.00    +0.054 A 
ATOM     22  C   UNL     1     130.342 127.172 125.705  1.00  0.00    +0.169 A 
ATOM     23  C   UNL     1     130.639 126.254 126.683  1.00  0.00    +0.166 A 
ATOM     24  O   UNL     1     129.597 128.209 126.176  1.00  0.00    -0.453 OA
ATOM     25  O   UNL     1     130.118 126.593 127.890  1.00  0.00    -0.454 OA
ATOM     26  C   UNL     1     129.426 127.814 127.557  1.00  0.00    +0.468 C 
ENDBRANCH  17  18
ENDBRANCH  16  17
ENDBRANCH   6  16
TORSDOF 4
ENDMDL
MODEL 5
REMARK VINA RESULT:    -9.216      3.549      4.650
REMARK INTER + INTRA:         -12.485
REMARK INTER:                 -11.075
REMARK INTRA:                  -1.410
REMARK UNBOUND:                -1.114
REMARK SMILES Fc1ccc([C@@H]2CC[NH2+]C[C@H]2COc2ccc3c(c2)OCO3)cc1
REMARK SMILES IDX 6 1 7 2 8 3 9 4 10 5 11 6 5 9 2 10 3 11 24 12 4 13 23 14
REMARK SMILES IDX 1 15 12 16 13 17 14 18 15 19 19 20 16 21 18 22 17 23 20 24
REMARK SMILES IDX 22 25 21 26
REMARK H PARENT 9 7 9 8
REMARK INDEX MAP 8 1 9 2 10 3 11 4 12 5 13 6 34 7 35 8 5 9 2 10 3 11 7 12 4 13
REMARK INDEX MAP 6 14 1 15 14 16 15 17 16 18 17 19 24 20 18 21 23 22 19 23
REMARK INDEX MAP 22 24 20 25 21 26
ROOT
ATOM      1  C   UNL     1     130.912 125.647 126.443  1.00  0.00    +0.037 C 
ATOM      2  C   UNL     1     129.858 125.446 127.553  1.00  0.00    +0.070 C 
ATOM      3  C   UNL     1     128.874 126.598 127.617  1.00  0.00    +0.261 C 
ATOM      4  N   UNL     1     128.244 126.764 126.277  1.00  0.00    -0.346 N 
ATOM      5  C   UNL     1     129.221 127.061 125.191  1.00  0.00    +0.268 C 
ATOM      6  C   UNL     1     130.240 125.925 125.066  1.00  0.00    +0.089 C 
ATOM      7  H   UNL     1     127.702 125.920 126.042  1.00  0.00    +0.346 HD
ATOM      8  H   UNL     1     127.552 127.525 126.327  1.00  0.00    +0.346 HD
ENDROOT
BRANCH   1   9
ATOM      9  C   UNL     1     131.865 124.463 126.453  1.00  0.00    -0.044 A 
ATOM     10  C   UNL     1     133.578 122.249 126.466  1.00  0.00    +0.123 A 
ATOM     11  C   UNL     1     134.112 123.528 126.515  1.00  0.00    +0.039 A 
ATOM     12  C   UNL     1     132.205 122.053 126.408  1.00  0.00    +0.039 A 
ATOM     13  C   UNL     1     133.260 124.634 126.508  1.00  0.00    +0.007 A 
ATOM     14  C   UNL     1     131.349 123.156 126.400  1.00  0.00    +0.007 A 
ATOM     15  F   UNL     1     134.397 121.190 126.478  1.00  0.00    -0.207 F 
ENDBRANCH   1   9
BRANCH   6  16
ATOM     16  C   UNL     1     131.251 126.324 123.967  1.00  0.00    +0.239 C 
BRANCH  16  17
ATOM     17  O   UNL     1     131.322 125.374 122.913  1.00  0.00    -0.493 OA
BRANCH  17  18
ATOM     18  C   UNL     1     132.545 124.938 122.485  1.00  0.00    +0.123 A 
ATOM     19  C   UNL     1     133.007 123.781 123.146  1.00  0.00    +0.050 A 
ATOM     20  C   UNL     1     133.325 125.524 121.486  1.00  0.00    +0.097 A 
ATOM     21  C   UNL     1     134.232 123.195 122.814  1.00  0.00    +0.054 A 
ATOM     22  C   UNL     1     134.530 124.924 121.177  1.00  0.00    +0.169 A 
ATOM     23  C   UNL     1     134.972 123.793 121.820  1.00  0.00    +0.166 A 
ATOM     24  O   UNL     1     135.404 125.355 120.227  1.00  0.00    -0.453 OA
ATOM     25  O   UNL     1     136.179 123.372 121.360  1.00  0.00    -0.454 OA
ATOM     26  C   UNL     1     136.467 124.386 120.376  1.00  0.00    +0.468 C 
ENDBRANCH  17  18
ENDBRANCH  16  17
ENDBRANCH   6  16
TORSDOF 4
ENDMDL
MODEL 6
REMARK VINA RESULT:    -9.062      3.958      6.517
REMARK INTER + INTRA:         -12.295
REMARK INTER:                 -11.495
REMARK INTRA:                  -0.800
REMARK UNBOUND:                -1.114
REMARK SMILES Fc1ccc([C@@H]2CC[NH2+]C[C@H]2COc2ccc3c(c2)OCO3)cc1
REMARK SMILES IDX 6 1 7 2 8 3 9 4 10 5 11 6 5 9 2 10 3 11 24 12 4 13 23 14
REMARK SMILES IDX 1 15 12 16 13 17 14 18 15 19 19 20 16 21 18 22 17 23 20 24
REMARK SMILES IDX 22 25 21 26
REMARK H PARENT 9 7 9 8
REMARK INDEX MAP 8 1 9 2 10 3 11 4 12 5 13 6 34 7 35 8 5 9 2 10 3 11 7 12 4 13
REMARK INDEX MAP 6 14 1 15 14 16 15 17 16 18 17 19 24 20 18 21 23 22 19 23
REMARK INDEX MAP 22 24 20 25 21 26
ROOT
ATOM      1  C   UNL     1     134.712 123.407 122.318  1.00  0.00    +0.037 C 
ATOM      2  C   UNL     1     135.917 123.637 121.381  1.00  0.00    +0.070 C 
ATOM      3  C   UNL     1     135.490 124.169 120.026  1.00  0.00    +0.261 C 
ATOM      4  N   UNL     1     134.698 125.415 120.230  1.00  0.00    -0.346 N 
ATOM      5  C   UNL     1     133.468 125.214 121.048  1.00  0.00    +0.268 C 
ATOM      6  C   UNL     1     133.834 124.687 122.438  1.00  0.00    +0.089 C 
ATOM      7  H   UNL     1     135.294 126.138 120.661  1.00  0.00    +0.346 HD
ATOM      8  H   UNL     1     134.435 125.795 119.310  1.00  0.00    +0.346 HD
ENDROOT
BRANCH   1   9
ATOM      9  C   UNL     1     135.220 122.862 123.643  1.00  0.00    -0.044 A 
ATOM     10  C   UNL     1     136.130 121.811 126.073  1.00  0.00    +0.123 A 
ATOM     11  C   UNL     1     136.568 123.062 125.661  1.00  0.00    +0.039 A 
ATOM     12  C   UNL     1     135.250 121.074 125.294  1.00  0.00    +0.039 A 
ATOM     13  C   UNL     1     136.116 123.588 124.449  1.00  0.00    +0.007 A 
ATOM     14  C   UNL     1     134.795 121.595 124.081  1.00  0.00    +0.007 A 
ATOM     15  F   UNL     1     136.561 121.311 127.238  1.00  0.00    -0.207 F 
ENDBRANCH   1   9
BRANCH   6  16
ATOM     16  C   UNL     1     132.514 124.447 123.208  1.00  0.00    +0.239 C 
BRANCH  16  17
ATOM     17  O   UNL     1     131.554 125.471 122.986  1.00  0.00    -0.493 OA
BRANCH  17  18
ATOM     18  C   UNL     1     131.145 126.245 124.036  1.00  0.00    +0.123 A 
ATOM     19  C   UNL     1     130.023 127.050 123.754  1.00  0.00    +0.050 A 
ATOM     20  C   UNL     1     131.727 126.286 125.304  1.00  0.00    +0.097 A 
ATOM     21  C   UNL     1     129.467 127.888 124.725  1.00  0.00    +0.054 A 
ATOM     22  C   UNL     1     131.157 127.121 126.246  1.00  0.00    +0.169 A 
ATOM     23  C   UNL     1     130.059 127.899 125.967  1.00  0.00    +0.166 A 
ATOM     24  O   UNL     1     131.589 127.274 127.528  1.00  0.00    -0.453 OA
ATOM     25  O   UNL     1     129.664 128.641 127.033  1.00  0.00    -0.454 OA
ATOM     26  C   UNL     1     130.658 128.270 128.010  1.00  0.00    +0.468 C 
ENDBRANCH  17  18
ENDBRANCH  16  17
ENDBRANCH   6  16
TORSDOF 4
ENDMDL
MODEL 7
REMARK VINA RESULT:    -9.059      4.661      7.668
REMARK INTER + INTRA:         -12.291
REMARK INTER:                 -11.732
REMARK INTRA:                  -0.560
REMARK UNBOUND:                -1.114
REMARK SMILES Fc1ccc([C@@H]2CC[NH2+]C[C@H]2COc2ccc3c(c2)OCO3)cc1
REMARK SMILES IDX 6 1 7 2 8 3 9 4 10 5 11 6 5 9 2 10 3 11 24 12 4 13 23 14
REMARK SMILES IDX 1 15 12 16 13 17 14 18 15 19 19 20 16 21 18 22 17 23 20 24
REMARK SMILES IDX 22 25 21 26
REMARK H PARENT 9 7 9 8
REMARK INDEX MAP 8 1 9 2 10 3 11 4 12 5 13 6 34 7 35 8 5 9 2 10 3 11 7 12 4 13
REMARK INDEX MAP 6 14 1 15 14 16 15 17 16 18 17 19 24 20 18 21 23 22 19 23
REMARK INDEX MAP 22 24 20 25 21 26
ROOT
ATOM      1  C   UNL     1     135.010 123.542 123.852  1.00  0.00    +0.037 C 
ATOM      2  C   UNL     1     136.257 122.635 123.941  1.00  0.00    +0.070 C 
ATOM      3  C   UNL     1     136.459 122.083 125.339  1.00  0.00    +0.261 C 
ATOM      4  N   UNL     1     135.219 121.367 125.754  1.00  0.00    -0.346 N 
ATOM      5  C   UNL     1     134.008 122.236 125.780  1.00  0.00    +0.268 C 
ATOM      6  C   UNL     1     133.741 122.817 124.389  1.00  0.00    +0.089 C 
ATOM      7  H   UNL     1     135.061 120.559 125.133  1.00  0.00    +0.346 HD
ATOM      8  H   UNL     1     135.367 120.964 126.690  1.00  0.00    +0.346 HD
ENDROOT
BRANCH   1   9
ATOM      9  C   UNL     1     134.886 124.065 122.431  1.00  0.00    -0.044 A 
ATOM     10  C   UNL     1     134.639 125.076 119.832  1.00  0.00    +0.123 A 
ATOM     11  C   UNL     1     135.203 123.824 120.028  1.00  0.00    +0.039 A 
ATOM     12  C   UNL     1     134.199 125.835 120.907  1.00  0.00    +0.039 A 
ATOM     13  C   UNL     1     135.328 123.318 121.324  1.00  0.00    +0.007 A 
ATOM     14  C   UNL     1     134.323 125.333 122.204  1.00  0.00    +0.007 A 
ATOM     15  F   UNL     1     134.516 125.557 118.588  1.00  0.00    -0.207 F 
ENDBRANCH   1   9
BRANCH   6  16
ATOM     16  C   UNL     1     132.512 123.749 124.501  1.00  0.00    +0.239 C 
BRANCH  16  17
ATOM     17  O   UNL     1     132.580 124.616 125.624  1.00  0.00    -0.493 OA
BRANCH  17  18
ATOM     18  C   UNL     1     131.468 124.798 126.399  1.00  0.00    +0.123 A 
ATOM     19  C   UNL     1     131.249 126.136 126.786  1.00  0.00    +0.050 A 
ATOM     20  C   UNL     1     130.578 123.803 126.808  1.00  0.00    +0.097 A 
ATOM     21  C   UNL     1     130.146 126.496 127.565  1.00  0.00    +0.054 A 
ATOM     22  C   UNL     1     129.495 124.186 127.576  1.00  0.00    +0.169 A 
ATOM     23  C   UNL     1     129.284 125.493 127.944  1.00  0.00    +0.166 A 
ATOM     24  O   UNL     1     128.530 123.351 128.048  1.00  0.00    -0.453 OA
ATOM     25  O   UNL     1     128.162 125.645 128.695  1.00  0.00    -0.454 OA
ATOM     26  C   UNL     1     127.707 124.280 128.790  1.00  0.00    +0.468 C 
ENDBRANCH  17  18
ENDBRANCH  16  17
ENDBRANCH   6  16
TORSDOF 4
ENDMDL
MODEL 8
REMARK VINA RESULT:    -9.043      3.310      6.597
REMARK INTER + INTRA:         -12.272
REMARK INTER:                 -12.195
REMARK INTRA:                  -0.077
REMARK UNBOUND:                -1.114
REMARK SMILES Fc1ccc([C@@H]2CC[NH2+]C[C@H]2COc2ccc3c(c2)OCO3)cc1
REMARK SMILES IDX 6 1 7 2 8 3 9 4 10 5 11 6 5 9 2 10 3 11 24 12 4 13 23 14
REMARK SMILES IDX 1 15 12 16 13 17 14 18 15 19 19 20 16 21 18 22 17 23 20 24
REMARK SMILES IDX 22 25 21 26
REMARK H PARENT 9 7 9 8
REMARK INDEX MAP 8 1 9 2 10 3 11 4 12 5 13 6 34 7 35 8 5 9 2 10 3 11 7 12 4 13
REMARK INDEX MAP 6 14 1 15 14 16 15 17 16 18 17 19 24 20 18 21 23 22 19 23
REMARK INDEX MAP 22 24 20 25 21 26
ROOT
ATOM      1  C   UNL     1     134.848 124.483 120.746  1.00  0.00    +0.037 C 
ATOM      2  C   UNL     1     134.361 125.880 120.303  1.00  0.00    +0.070 C 
ATOM      3  C   UNL     1     134.284 126.849 121.467  1.00  0.00    +0.261 C 
ATOM      4  N   UNL     1     135.617 126.909 122.129  1.00  0.00    -0.346 N 
ATOM      5  C   UNL     1     136.079 125.596 122.662  1.00  0.00    +0.268 C 
ATOM      6  C   UNL     1     136.191 124.572 121.529  1.00  0.00    +0.089 C 
ATOM      7  H   UNL     1     136.314 127.288 121.470  1.00  0.00    +0.346 HD
ATOM      8  H   UNL     1     135.575 127.592 122.899  1.00  0.00    +0.346 HD
ENDROOT
BRANCH   1   9
ATOM      9  C   UNL     1     134.884 123.570 119.531  1.00  0.00    -0.044 A 
ATOM     10  C   UNL     1     134.960 121.847 117.327  1.00  0.00    +0.123 A 
ATOM     11  C   UNL     1     134.623 123.180 117.142  1.00  0.00    +0.039 A 
ATOM     12  C   UNL     1     135.256 121.356 118.590  1.00  0.00    +0.039 A 
ATOM     13  C   UNL     1     134.584 124.042 118.240  1.00  0.00    +0.007 A 
ATOM     14  C   UNL     1     135.217 122.214 119.692  1.00  0.00    +0.007 A 
ATOM     15  F   UNL     1     135.001 121.024 116.271  1.00  0.00    -0.207 F 
ENDBRANCH   1   9
BRANCH   6  16
ATOM     16  C   UNL     1     136.616 123.225 122.158  1.00  0.00    +0.239 C 
BRANCH  16  17
ATOM     17  O   UNL     1     136.778 123.303 123.568  1.00  0.00    -0.493 OA
BRANCH  17  18
ATOM     18  C   UNL     1     135.825 122.759 124.383  1.00  0.00    +0.123 A 
ATOM     19  C   UNL     1     136.288 121.690 125.177  1.00  0.00    +0.050 A 
ATOM     20  C   UNL     1     134.495 123.171 124.484  1.00  0.00    +0.097 A 
ATOM     21  C   UNL     1     135.445 121.035 126.079  1.00  0.00    +0.054 A 
ATOM     22  C   UNL     1     133.683 122.508 125.384  1.00  0.00    +0.169 A 
ATOM     23  C   UNL     1     134.142 121.471 126.159  1.00  0.00    +0.166 A 
ATOM     24  O   UNL     1     132.371 122.786 125.615  1.00  0.00    -0.453 OA
ATOM     25  O   UNL     1     133.180 120.964 126.972  1.00  0.00    -0.454 OA
ATOM     26  C   UNL     1     132.048 121.776 126.598  1.00  0.00    +0.468 C 
ENDBRANCH  17  18
ENDBRANCH  16  17
ENDBRANCH   6  16
TORSDOF 4
ENDMDL
MODEL 9
REMARK VINA RESULT:    -8.937      3.810      6.797
REMARK INTER + INTRA:         -12.141
REMARK INTER:                 -11.282
REMARK INTRA:                  -0.859
REMARK UNBOUND:                -1.114
REMARK SMILES Fc1ccc([C@@H]2CC[NH2+]C[C@H]2COc2ccc3c(c2)OCO3)cc1
REMARK SMILES IDX 6 1 7 2 8 3 9 4 10 5 11 6 5 9 2 10 3 11 24 12 4 13 23 14
REMARK SMILES IDX 1 15 12 16 13 17 14 18 15 19 19 20 16 21 18 22 17 23 20 24
REMARK SMILES IDX 22 25 21 26
REMARK H PARENT 9 7 9 8
REMARK INDEX MAP 8 1 9 2 10 3 11 4 12 5 13 6 34 7 35 8 5 9 2 10 3 11 7 12 4 13
REMARK INDEX MAP 6 14 1 15 14 16 15 17 16 18 17 19 24 20 18 21 23 22 19 23
REMARK INDEX MAP 22 24 20 25 21 26
ROOT
ATOM      1  C   UNL     1     135.177 125.194 123.216  1.00  0.00    +0.037 C 
ATOM      2  C   UNL     1     136.459 126.022 123.449  1.00  0.00    +0.070 C 
ATOM      3  C   UNL     1     136.582 126.485 124.888  1.00  0.00    +0.261 C 
ATOM      4  N   UNL     1     136.518 125.294 125.781  1.00  0.00    -0.346 N 
ATOM      5  C   UNL     1     135.249 124.524 125.659  1.00  0.00    +0.268 C 
ATOM      6  C   UNL     1     135.070 124.014 124.227  1.00  0.00    +0.089 C 
ATOM      7  H   UNL     1     137.324 124.678 125.596  1.00  0.00    +0.346 HD
ATOM      8  H   UNL     1     136.634 125.604 126.757  1.00  0.00    +0.346 HD
ENDROOT
BRANCH   1   9
ATOM      9  C   UNL     1     135.120 124.782 121.754  1.00  0.00    -0.044 A 
ATOM     10  C   UNL     1     134.985 124.067 119.051  1.00  0.00    +0.123 A 
ATOM     11  C   UNL     1     135.757 123.311 119.921  1.00  0.00    +0.039 A 
ATOM     12  C   UNL     1     134.282 125.175 119.503  1.00  0.00    +0.039 A 
ATOM     13  C   UNL     1     135.826 123.666 121.270  1.00  0.00    +0.007 A 
ATOM     14  C   UNL     1     134.349 125.534 120.850  1.00  0.00    +0.007 A 
ATOM     15  F   UNL     1     134.917 123.722 117.759  1.00  0.00    -0.207 F 
ENDBRANCH   1   9
BRANCH   6  16
ATOM     16  C   UNL     1     133.712 123.278 124.158  1.00  0.00    +0.239 C 
BRANCH  16  17
ATOM     17  O   UNL     1     132.626 124.153 123.891  1.00  0.00    -0.493 OA
BRANCH  17  18
ATOM     18  C   UNL     1     131.915 124.677 124.936  1.00  0.00    +0.123 A 
ATOM     19  C   UNL     1     131.230 123.715 125.706  1.00  0.00    +0.050 A 
ATOM     20  C   UNL     1     131.830 126.028 125.279  1.00  0.00    +0.097 A 
ATOM     21  C   UNL     1     130.471 124.082 126.821  1.00  0.00    +0.054 A 
ATOM     22  C   UNL     1     131.075 126.363 126.386  1.00  0.00    +0.169 A 
ATOM     23  C   UNL     1     130.415 125.420 127.136  1.00  0.00    +0.166 A 
ATOM     24  O   UNL     1     130.895 127.625 126.863  1.00  0.00    -0.453 OA
ATOM     25  O   UNL     1     129.735 125.967 128.177  1.00  0.00    -0.454 OA
ATOM     26  C   UNL     1     130.011 127.368 127.979  1.00  0.00    +0.468 C 
ENDBRANCH  17  18
ENDBRANCH  16  17
ENDBRANCH   6  16
TORSDOF 4
ENDMDL
MODEL 10
REMARK VINA RESULT:    -8.890      2.460      3.155
REMARK INTER + INTRA:         -12.083
REMARK INTER:                 -11.975
REMARK INTRA:                  -0.108
REMARK UNBOUND:                -1.114
REMARK SMILES Fc1ccc([C@@H]2CC[NH2+]C[C@H]2COc2ccc3c(c2)OCO3)cc1
REMARK SMILES IDX 6 1 7 2 8 3 9 4 10 5 11 6 5 9 2 10 3 11 24 12 4 13 23 14
REMARK SMILES IDX 1 15 12 16 13 17 14 18 15 19 19 20 16 21 18 22 17 23 20 24
REMARK SMILES IDX 22 25 21 26
REMARK H PARENT 9 7 9 8
REMARK INDEX MAP 8 1 9 2 10 3 11 4 12 5 13 6 34 7 35 8 5 9 2 10 3 11 7 12 4 13
REMARK INDEX MAP 6 14 1 15 14 16 15 17 16 18 17 19 24 20 18 21 23 22 19 23
REMARK INDEX MAP 22 24 20 25 21 26
ROOT
ATOM      1  C   UNL     1     133.922 124.531 124.546  1.00  0.00    +0.037 C 
ATOM      2  C   UNL     1     132.556 124.649 125.256  1.00  0.00    +0.070 C 
ATOM      3  C   UNL     1     131.662 125.683 124.599  1.00  0.00    +0.261 C 
ATOM      4  N   UNL     1     131.511 125.339 123.157  1.00  0.00    -0.346 N 
ATOM      5  C   UNL     1     132.801 125.315 122.411  1.00  0.00    +0.268 C 
ATOM      6  C   UNL     1     133.749 124.277 123.019  1.00  0.00    +0.089 C 
ATOM      7  H   UNL     1     131.034 124.430 123.066  1.00  0.00    +0.346 HD
ATOM      8  H   UNL     1     130.878 126.022 122.717  1.00  0.00    +0.346 HD
ENDROOT
BRANCH   1   9
ATOM      9  C   UNL     1     134.761 123.491 125.269  1.00  0.00    -0.044 A 
ATOM     10  C   UNL     1     136.277 121.584 126.647  1.00  0.00    +0.123 A 
ATOM     11  C   UNL     1     136.493 121.780 125.291  1.00  0.00    +0.039 A 
ATOM     12  C   UNL     1     135.317 122.318 127.328  1.00  0.00    +0.039 A 
ATOM     13  C   UNL     1     135.738 122.731 124.601  1.00  0.00    +0.007 A 
ATOM     14  C   UNL     1     134.559 123.269 126.643  1.00  0.00    +0.007 A 
ATOM     15  F   UNL     1     137.006 120.675 127.306  1.00  0.00    -0.207 F 
ENDBRANCH   1   9
BRANCH   6  16
ATOM     16  C   UNL     1     135.081 124.346 122.237  1.00  0.00    +0.239 C 
BRANCH  16  17
ATOM     17  O   UNL     1     134.935 124.941 120.955  1.00  0.00    -0.493 OA
BRANCH  17  18
ATOM     18  C   UNL     1     134.905 124.143 119.846  1.00  0.00    +0.123 A 
ATOM     19  C   UNL     1     134.442 124.792 118.683  1.00  0.00    +0.050 A 
ATOM     20  C   UNL     1     135.286 122.802 119.785  1.00  0.00    +0.097 A 
ATOM     21  C   UNL     1     134.366 124.123 117.458  1.00  0.00    +0.054 A 
ATOM     22  C   UNL     1     135.203 122.164 118.562  1.00  0.00    +0.169 A 
ATOM     23  C   UNL     1     134.757 122.804 117.431  1.00  0.00    +0.166 A 
ATOM     24  O   UNL     1     135.543 120.868 118.325  1.00  0.00    -0.453 OA
ATOM     25  O   UNL     1     134.757 121.993 116.342  1.00  0.00    -0.454 OA
ATOM     26  C   UNL     1     135.221 120.756 116.920  1.00  0.00    +0.468 C 
ENDBRANCH  17  18
ENDBRANCH  16  17
ENDBRANCH   6  16
TORSDOF 4
ENDMDL
MODEL 11
REMARK VINA RESULT:    -8.836      3.541      6.150
REMARK INTER + INTRA:         -12.016
REMARK INTER:                 -10.782
REMARK INTRA:                  -1.234
REMARK UNBOUND:                -1.114
REMARK SMILES Fc1ccc([C@@H]2CC[NH2+]C[C@H]2COc2ccc3c(c2)OCO3)cc1
REMARK SMILES IDX 6 1 7 2 8 3 9 4 10 5 11 6 5 9 2 10 3 11 24 12 4 13 23 14
REMARK SMILES IDX 1 15 12 16 13 17 14 18 15 19 19 20 16 21 18 22 17 23 20 24
REMARK SMILES IDX 22 25 21 26
REMARK H PARENT 9 7 9 8
REMARK INDEX MAP 8 1 9 2 10 3 11 4 12 5 13 6 34 7 35 8 5 9 2 10 3 11 7 12 4 13
REMARK INDEX MAP 6 14 1 15 14 16 15 17 16 18 17 19 24 20 18 21 23 22 19 23
REMARK INDEX MAP 22 24 20 25 21 26
ROOT
ATOM      1  C   UNL     1     135.316 124.161 121.508  1.00  0.00    +0.037 C 
ATOM      2  C   UNL     1     136.425 123.402 120.748  1.00  0.00    +0.070 C 
ATOM      3  C   UNL     1     135.940 122.874 119.412  1.00  0.00    +0.261 C 
ATOM      4  N   UNL     1     135.398 124.012 118.616  1.00  0.00    -0.346 N 
ATOM      5  C   UNL     1     134.256 124.709 119.271  1.00  0.00    +0.268 C 
ATOM      6  C   UNL     1     134.685 125.279 120.626  1.00  0.00    +0.089 C 
ATOM      7  H   UNL     1     136.154 124.685 118.415  1.00  0.00    +0.346 HD
ATOM      8  H   UNL     1     135.099 123.661 117.696  1.00  0.00    +0.346 HD
ENDROOT
BRANCH   1   9
ATOM      9  C   UNL     1     135.874 124.643 122.836  1.00  0.00    -0.044 A 
ATOM     10  C   UNL     1     136.912 125.580 125.261  1.00  0.00    +0.123 A 
ATOM     11  C   UNL     1     136.393 124.296 125.190  1.00  0.00    +0.039 A 
ATOM     12  C   UNL     1     136.921 126.407 124.147  1.00  0.00    +0.039 A 
ATOM     13  C   UNL     1     135.874 123.826 123.982  1.00  0.00    +0.007 A 
ATOM     14  C   UNL     1     136.402 125.942 122.936  1.00  0.00    +0.007 A 
ATOM     15  F   UNL     1     137.413 126.026 126.420  1.00  0.00    -0.207 F 
ENDBRANCH   1   9
BRANCH   6  16
ATOM     16  C   UNL     1     133.443 125.933 121.272  1.00  0.00    +0.239 C 
BRANCH  16  17
ATOM     17  O   UNL     1     132.532 124.979 121.801  1.00  0.00    -0.493 OA
BRANCH  17  18
ATOM     18  C   UNL     1     132.099 125.111 123.092  1.00  0.00    +0.123 A 
ATOM     19  C   UNL     1     132.168 123.921 123.846  1.00  0.00    +0.050 A 
ATOM     20  C   UNL     1     131.622 126.281 123.685  1.00  0.00    +0.097 A 
ATOM     21  C   UNL     1     131.780 123.888 125.188  1.00  0.00    +0.054 A 
ATOM     22  C   UNL     1     131.247 126.221 125.014  1.00  0.00    +0.169 A 
ATOM     23  C   UNL     1     131.323 125.060 125.745  1.00  0.00    +0.166 A 
ATOM     24  O   UNL     1     130.773 127.266 125.746  1.00  0.00    -0.453 OA
ATOM     25  O   UNL     1     130.906 125.226 127.027  1.00  0.00    -0.454 OA
ATOM     26  C   UNL     1     130.523 126.616 127.014  1.00  0.00    +0.468 C 
ENDBRANCH  17  18
ENDBRANCH  16  17
ENDBRANCH   6  16
TORSDOF 4
ENDMDL
MODEL 12
REMARK VINA RESULT:    -8.801      3.402      6.376
REMARK INTER + INTRA:         -11.973
REMARK INTER:                 -11.445
REMARK INTRA:                  -0.528
REMARK UNBOUND:                -1.114
REMARK SMILES Fc1ccc([C@@H]2CC[NH2+]C[C@H]2COc2ccc3c(c2)OCO3)cc1
REMARK SMILES IDX 6 1 7 2 8 3 9 4 10 5 11 6 5 9 2 10 3 11 24 12 4 13 23 14
REMARK SMILES IDX 1 15 12 16 13 17 14 18 15 19 19 20 16 21 18 22 17 23 20 24
REMARK SMILES IDX 22 25 21 26
REMARK H PARENT 9 7 9 8
REMARK INDEX MAP 8 1 9 2 10 3 11 4 12 5 13 6 34 7 35 8 5 9 2 10 3 11 7 12 4 13
REMARK INDEX MAP 6 14 1 15 14 16 15 17 16 18 17 19 24 20 18 21 23 22 19 23
REMARK INDEX MAP 22 24 20 25 21 26
ROOT
ATOM      1  C   UNL     1     135.429 125.209 122.921  1.00  0.00    +0.037 C 
ATOM      2  C   UNL     1     136.133 126.582 122.983  1.00  0.00    +0.070 C 
ATOM      3  C   UNL     1     136.303 127.070 124.408  1.00  0.00    +0.261 C 
ATOM      4  N   UNL     1     137.038 126.033 125.185  1.00  0.00    -0.346 N 
ATOM      5  C   UNL     1     136.340 124.717 125.236  1.00  0.00    +0.268 C 
ATOM      6  C   UNL     1     136.148 124.161 123.822  1.00  0.00    +0.089 C 
ATOM      7  H   UNL     1     137.985 125.914 124.795  1.00  0.00    +0.346 HD
ATOM      8  H   UNL     1     137.183 126.377 126.145  1.00  0.00    +0.346 HD
ENDROOT
BRANCH   1   9
ATOM      9  C   UNL     1     135.284 124.799 121.465  1.00  0.00    -0.044 A 
ATOM     10  C   UNL     1     135.055 124.003 118.792  1.00  0.00    +0.123 A 
ATOM     11  C   UNL     1     134.231 125.006 119.280  1.00  0.00    +0.039 A 
ATOM     12  C   UNL     1     135.989 123.387 119.612  1.00  0.00    +0.039 A 
ATOM     13  C   UNL     1     134.343 125.404 120.614  1.00  0.00    +0.007 A 
ATOM     14  C   UNL     1     136.105 123.781 120.947  1.00  0.00    +0.007 A 
ATOM     15  F   UNL     1     134.949 123.626 117.511  1.00  0.00    -0.207 F 
ENDBRANCH   1   9
BRANCH   6  16
ATOM     16  C   UNL     1     135.370 122.831 123.944  1.00  0.00    +0.239 C 
BRANCH  16  17
ATOM     17  O   UNL     1     134.014 122.948 123.535  1.00  0.00    -0.493 OA
BRANCH  17  18
ATOM     18  C   UNL     1     133.034 123.050 124.484  1.00  0.00    +0.123 A 
ATOM     19  C   UNL     1     133.176 122.146 125.556  1.00  0.00    +0.050 A 
ATOM     20  C   UNL     1     131.962 123.944 124.468  1.00  0.00    +0.097 A 
ATOM     21  C   UNL     1     132.268 122.131 126.619  1.00  0.00    +0.054 A 
ATOM     22  C   UNL     1     131.081 123.910 125.531  1.00  0.00    +0.169 A 
ATOM     23  C   UNL     1     131.228 123.031 126.576  1.00  0.00    +0.166 A 
ATOM     24  O   UNL     1     129.994 124.715 125.679  1.00  0.00    -0.453 OA
ATOM     25  O   UNL     1     130.253 123.168 127.512  1.00  0.00    -0.454 OA
ATOM     26  C   UNL     1     129.451 124.212 126.922  1.00  0.00    +0.468 C 
ENDBRANCH  17  18
ENDBRANCH  16  17
ENDBRANCH   6  16
TORSDOF 4
ENDMDL
MODEL 13
REMARK VINA RESULT:    -8.757      3.731      6.491
REMARK INTER + INTRA:         -11.919
REMARK INTER:                 -11.237
REMARK INTRA:                  -0.681
REMARK UNBOUND:                -1.114
REMARK SMILES Fc1ccc([C@@H]2CC[NH2+]C[C@H]2COc2ccc3c(c2)OCO3)cc1
REMARK SMILES IDX 6 1 7 2 8 3 9 4 10 5 11 6 5 9 2 10 3 11 24 12 4 13 23 14
REMARK SMILES IDX 1 15 12 16 13 17 14 18 15 19 19 20 16 21 18 22 17 23 20 24
REMARK SMILES IDX 22 25 21 26
REMARK H PARENT 9 7 9 8
REMARK INDEX MAP 8 1 9 2 10 3 11 4 12 5 13 6 34 7 35 8 5 9 2 10 3 11 7 12 4 13
REMARK INDEX MAP 6 14 1 15 14 16 15 17 16 18 17 19 24 20 18 21 23 22 19 23
REMARK INDEX MAP 22 24 20 25 21 26
ROOT
ATOM      1  C   UNL     1     134.876 123.174 122.088  1.00  0.00    +0.037 C 
ATOM      2  C   UNL     1     136.034 123.031 121.077  1.00  0.00    +0.070 C 
ATOM      3  C   UNL     1     135.647 123.521 119.695  1.00  0.00    +0.261 C 
ATOM      4  N   UNL     1     135.174 124.930 119.803  1.00  0.00    -0.346 N 
ATOM      5  C   UNL     1     133.990 125.096 120.693  1.00  0.00    +0.268 C 
ATOM      6  C   UNL     1     134.320 124.629 122.113  1.00  0.00    +0.089 C 
ATOM      7  H   UNL     1     135.946 125.531 120.128  1.00  0.00    +0.346 HD
ATOM      8  H   UNL     1     134.941 125.276 118.861  1.00  0.00    +0.346 HD
ENDROOT
BRANCH   1   9
ATOM      9  C   UNL     1     135.337 122.649 123.437  1.00  0.00    -0.044 A 
ATOM     10  C   UNL     1     136.150 121.642 125.919  1.00  0.00    +0.123 A 
ATOM     11  C   UNL     1     136.793 122.750 125.386  1.00  0.00    +0.039 A 
ATOM     12  C   UNL     1     135.112 121.024 125.236  1.00  0.00    +0.039 A 
ATOM     13  C   UNL     1     136.389 123.254 124.148  1.00  0.00    +0.007 A 
ATOM     14  C   UNL     1     134.705 121.524 123.997  1.00  0.00    +0.007 A 
ATOM     15  F   UNL     1     136.537 121.163 127.108  1.00  0.00    -0.207 F 
ENDBRANCH   1   9
BRANCH   6  16
ATOM     16  C   UNL     1     133.037 124.773 122.963  1.00  0.00    +0.239 C 
BRANCH  16  17
ATOM     17  O   UNL     1     133.292 124.700 124.359  1.00  0.00    -0.493 OA
BRANCH  17  18
ATOM     18  C   UNL     1     132.258 124.866 125.238  1.00  0.00    +0.123 A 
ATOM     19  C   UNL     1     131.901 126.213 125.459  1.00  0.00    +0.050 A 
ATOM     20  C   UNL     1     131.562 123.849 125.894  1.00  0.00    +0.097 A 
ATOM     21  C   UNL     1     130.852 126.556 126.316  1.00  0.00    +0.054 A 
ATOM     22  C   UNL     1     130.528 124.215 126.734  1.00  0.00    +0.169 A 
ATOM     23  C   UNL     1     130.182 125.528 126.940  1.00  0.00    +0.166 A 
ATOM     24  O   UNL     1     129.744 123.355 127.439  1.00  0.00    -0.453 OA
ATOM     25  O   UNL     1     129.140 125.662 127.801  1.00  0.00    -0.454 OA
ATOM     26  C   UNL     1     128.889 124.284 128.144  1.00  0.00    +0.468 C 
ENDBRANCH  17  18
ENDBRANCH  16  17
ENDBRANCH   6  16
TORSDOF 4
ENDMDL
MODEL 14
REMARK VINA RESULT:    -8.651      3.472      7.073
REMARK INTER + INTRA:         -11.788
REMARK INTER:                 -11.667
REMARK INTRA:                  -0.121
REMARK UNBOUND:                -1.114
REMARK SMILES Fc1ccc([C@@H]2CC[NH2+]C[C@H]2COc2ccc3c(c2)OCO3)cc1
REMARK SMILES IDX 6 1 7 2 8 3 9 4 10 5 11 6 5 9 2 10 3 11 24 12 4 13 23 14
REMARK SMILES IDX 1 15 12 16 13 17 14 18 15 19 19 20 16 21 18 22 17 23 20 24
REMARK SMILES IDX 22 25 21 26
REMARK H PARENT 9 7 9 8
REMARK INDEX MAP 8 1 9 2 10 3 11 4 12 5 13 6 34 7 35 8 5 9 2 10 3 11 7 12 4 13
REMARK INDEX MAP 6 14 1 15 14 16 15 17 16 18 17 19 24 20 18 21 23 22 19 23
REMARK INDEX MAP 22 24 20 25 21 26
ROOT
ATOM      1  C   UNL     1     134.650 124.724 120.693  1.00  0.00    +0.037 C 
ATOM      2  C   UNL     1     134.325 126.196 120.356  1.00  0.00    +0.070 C 
ATOM      3  C   UNL     1     134.258 127.062 121.599  1.00  0.00    +0.261 C 
ATOM      4  N   UNL     1     135.543 126.932 122.342  1.00  0.00    -0.346 N 
ATOM      5  C   UNL     1     135.844 125.538 122.775  1.00  0.00    +0.268 C 
ATOM      6  C   UNL     1     135.938 124.611 121.560  1.00  0.00    +0.089 C 
ATOM      7  H   UNL     1     136.316 127.297 121.764  1.00  0.00    +0.346 HD
ATOM      8  H   UNL     1     135.512 127.545 123.169  1.00  0.00    +0.346 HD
ENDROOT
BRANCH   1   9
ATOM      9  C   UNL     1     134.684 123.923 119.402  1.00  0.00    -0.044 A 
ATOM     10  C   UNL     1     134.724 122.489 116.998  1.00  0.00    +0.123 A 
ATOM     11  C   UNL     1     135.304 121.940 118.132  1.00  0.00    +0.039 A 
ATOM     12  C   UNL     1     134.129 123.742 117.039  1.00  0.00    +0.039 A 
ATOM     13  C   UNL     1     135.286 122.653 119.333  1.00  0.00    +0.007 A 
ATOM     14  C   UNL     1     134.108 124.459 118.237  1.00  0.00    +0.007 A 
ATOM     15  F   UNL     1     134.740 121.801 115.849  1.00  0.00    -0.207 F 
ENDBRANCH   1   9
BRANCH   6  16
ATOM     16  C   UNL     1     136.193 123.179 122.084  1.00  0.00    +0.239 C 
BRANCH  16  17
ATOM     17  O   UNL     1     135.094 122.659 122.818  1.00  0.00    -0.493 OA
BRANCH  17  18
ATOM     18  C   UNL     1     135.219 122.466 124.166  1.00  0.00    +0.123 A 
ATOM     19  C   UNL     1     134.188 123.053 124.929  1.00  0.00    +0.050 A 
ATOM     20  C   UNL     1     136.239 121.760 124.806  1.00  0.00    +0.097 A 
ATOM     21  C   UNL     1     134.157 122.934 126.321  1.00  0.00    +0.054 A 
ATOM     22  C   UNL     1     136.184 121.657 126.182  1.00  0.00    +0.169 A 
ATOM     23  C   UNL     1     135.173 122.225 126.919  1.00  0.00    +0.166 A 
ATOM     24  O   UNL     1     137.086 120.998 126.959  1.00  0.00    -0.453 OA
ATOM     25  O   UNL     1     135.313 122.000 128.252  1.00  0.00    -0.454 OA
ATOM     26  C   UNL     1     136.547 121.254 128.277  1.00  0.00    +0.468 C 
ENDBRANCH  17  18
ENDBRANCH  16  17
ENDBRANCH   6  16
TORSDOF 4
ENDMDL
MODEL 15
REMARK VINA RESULT:    -8.603      4.309      6.977
REMARK INTER + INTRA:         -11.729
REMARK INTER:                 -11.038
REMARK INTRA:                  -0.691
REMARK UNBOUND:                -1.114
REMARK SMILES Fc1ccc([C@@H]2CC[NH2+]C[C@H]2COc2ccc3c(c2)OCO3)cc1
REMARK SMILES IDX 6 1 7 2 8 3 9 4 10 5 11 6 5 9 2 10 3 11 24 12 4 13 23 14
REMARK SMILES IDX 1 15 12 16 13 17 14 18 15 19 19 20 16 21 18 22 17 23 20 24
REMARK SMILES IDX 22 25 21 26
REMARK H PARENT 9 7 9 8
REMARK INDEX MAP 8 1 9 2 10 3 11 4 12 5 13 6 34 7 35 8 5 9 2 10 3 11 7 12 4 13
REMARK INDEX MAP 6 14 1 15 14 16 15 17 16 18 17 19 24 20 18 21 23 22 19 23
REMARK INDEX MAP 22 24 20 25 21 26
ROOT
ATOM      1  C   UNL     1     134.957 123.466 123.605  1.00  0.00    +0.037 C 
ATOM      2  C   UNL     1     136.276 122.690 123.810  1.00  0.00    +0.070 C 
ATOM      3  C   UNL     1     136.441 122.217 125.241  1.00  0.00    +0.261 C 
ATOM      4  N   UNL     1     135.251 121.402 125.616  1.00  0.00    -0.346 N 
ATOM      5  C   UNL     1     133.964 122.147 125.529  1.00  0.00    +0.268 C 
ATOM      6  C   UNL     1     133.731 122.643 124.099  1.00  0.00    +0.089 C 
ATOM      7  H   UNL     1     135.211 120.557 125.025  1.00  0.00    +0.346 HD
ATOM      8  H   UNL     1     135.377 121.053 126.577  1.00  0.00    +0.346 HD
ENDROOT
BRANCH   1   9
ATOM      9  C   UNL     1     134.875 123.916 122.156  1.00  0.00    -0.044 A 
ATOM     10  C   UNL     1     134.700 124.791 119.503  1.00  0.00    +0.123 A 
ATOM     11  C   UNL     1     135.323 123.585 119.785  1.00  0.00    +0.039 A 
ATOM     12  C   UNL     1     134.165 125.572 120.518  1.00  0.00    +0.039 A 
ATOM     13  C   UNL     1     135.412 123.146 121.108  1.00  0.00    +0.007 A 
ATOM     14  C   UNL     1     134.252 125.137 121.843  1.00  0.00    +0.007 A 
ATOM     15  F   UNL     1     134.612 125.207 118.233  1.00  0.00    -0.207 F 
ENDBRANCH   1   9
BRANCH   6  16
ATOM     16  C   UNL     1     132.415 123.453 124.094  1.00  0.00    +0.239 C 
BRANCH  16  17
ATOM     17  O   UNL     1     131.984 123.810 125.401  1.00  0.00    -0.493 OA
BRANCH  17  18
ATOM     18  C   UNL     1     131.302 124.980 125.585  1.00  0.00    +0.123 A 
ATOM     19  C   UNL     1     130.789 125.148 126.888  1.00  0.00    +0.050 A 
ATOM     20  C   UNL     1     131.093 125.972 124.625  1.00  0.00    +0.097 A 
ATOM     21  C   UNL     1     130.082 126.298 127.249  1.00  0.00    +0.054 A 
ATOM     22  C   UNL     1     130.392 127.099 125.008  1.00  0.00    +0.169 A 
ATOM     23  C   UNL     1     129.901 127.260 126.281  1.00  0.00    +0.166 A 
ATOM     24  O   UNL     1     130.110 128.162 124.205  1.00  0.00    -0.453 OA
ATOM     25  O   UNL     1     129.247 128.439 126.440  1.00  0.00    -0.454 OA
ATOM     26  C   UNL     1     129.349 128.992 125.112  1.00  0.00    +0.468 C 
ENDBRANCH  17  18
ENDBRANCH  16  17
ENDBRANCH   6  16
TORSDOF 4
ENDMDL
MODEL 16
REMARK VINA RESULT:    -8.549      2.317      3.261
REMARK INTER + INTRA:         -11.663
REMARK INTER:                 -11.581
REMARK INTRA:                  -0.082
REMARK UNBOUND:                -1.114
REMARK SMILES Fc1ccc([C@@H]2CC[NH2+]C[C@H]2COc2ccc3c(c2)OCO3)cc1
REMARK SMILES IDX 6 1 7 2 8 3 9 4 10 5 11 6 5 9 2 10 3 11 24 12 4 13 23 14
REMARK SMILES IDX 1 15 12 16 13 17 14 18 15 19 19 20 16 21 18 22 17 23 20 24
REMARK SMILES IDX 22 25 21 26
REMARK H PARENT 9 7 9 8
REMARK INDEX MAP 8 1 9 2 10 3 11 4 12 5 13 6 34 7 35 8 5 9 2 10 3 11 7 12 4 13
REMARK INDEX MAP 6 14 1 15 14 16 15 17 16 18 17 19 24 20 18 21 23 22 19 23
REMARK INDEX MAP 22 24 20 25 21 26
ROOT
ATOM      1  C   UNL     1     134.032 123.070 125.245  1.00  0.00    +0.037 C 
ATOM      2  C   UNL     1     134.697 122.248 126.371  1.00  0.00    +0.070 C 
ATOM      3  C   UNL     1     135.904 121.476 125.873  1.00  0.00    +0.261 C 
ATOM      4  N   UNL     1     136.858 122.433 125.245  1.00  0.00    -0.346 N 
ATOM      5  C   UNL     1     136.285 123.176 124.087  1.00  0.00    +0.268 C 
ATOM      6  C   UNL     1     135.065 123.989 124.527  1.00  0.00    +0.089 C 
ATOM      7  H   UNL     1     137.200 123.098 125.956  1.00  0.00    +0.346 HD
ATOM      8  H   UNL     1     137.693 121.915 124.936  1.00  0.00    +0.346 HD
ENDROOT
BRANCH   1   9
ATOM      9  C   UNL     1     132.828 123.799 125.819  1.00  0.00    -0.044 A 
ATOM     10  C   UNL     1     130.589 125.093 126.889  1.00  0.00    +0.123 A 
ATOM     11  C   UNL     1     131.641 125.847 126.390  1.00  0.00    +0.039 A 
ATOM     12  C   UNL     1     130.634 123.707 126.868  1.00  0.00    +0.039 A 
ATOM     13  C   UNL     1     132.760 125.204 125.856  1.00  0.00    +0.007 A 
ATOM     14  C   UNL     1     131.750 123.059 126.335  1.00  0.00    +0.007 A 
ATOM     15  F   UNL     1     129.516 125.713 127.396  1.00  0.00    -0.207 F 
ENDBRANCH   1   9
BRANCH   6  16
ATOM     16  C   UNL     1     134.488 124.683 123.272  1.00  0.00    +0.239 C 
BRANCH  16  17
ATOM     17  O   UNL     1     135.466 124.891 122.262  1.00  0.00    -0.493 OA
BRANCH  17  18
ATOM     18  C   UNL     1     135.257 124.376 121.012  1.00  0.00    +0.123 A 
ATOM     19  C   UNL     1     135.788 123.083 120.826  1.00  0.00    +0.050 A 
ATOM     20  C   UNL     1     134.585 125.006 119.963  1.00  0.00    +0.097 A 
ATOM     21  C   UNL     1     135.647 122.406 119.612  1.00  0.00    +0.054 A 
ATOM     22  C   UNL     1     134.457 124.315 118.774  1.00  0.00    +0.169 A 
ATOM     23  C   UNL     1     134.971 123.053 118.602  1.00  0.00    +0.166 A 
ATOM     24  O   UNL     1     133.825 124.774 117.660  1.00  0.00    -0.453 OA
ATOM     25  O   UNL     1     134.732 122.559 117.359  1.00  0.00    -0.454 OA
ATOM     26  C   UNL     1     134.037 123.668 116.753  1.00  0.00    +0.468 C 
ENDBRANCH  17  18
ENDBRANCH  16  17
ENDBRANCH   6  16
TORSDOF 4
ENDMDL
MODEL 17
REMARK VINA RESULT:    -8.515      4.384      7.003
REMARK INTER + INTRA:         -11.620
REMARK INTER:                 -11.076
REMARK INTRA:                  -0.544
REMARK UNBOUND:                -1.114
REMARK SMILES Fc1ccc([C@@H]2CC[NH2+]C[C@H]2COc2ccc3c(c2)OCO3)cc1
REMARK SMILES IDX 6 1 7 2 8 3 9 4 10 5 11 6 5 9 2 10 3 11 24 12 4 13 23 14
REMARK SMILES IDX 1 15 12 16 13 17 14 18 15 19 19 20 16 21 18 22 17 23 20 24
REMARK SMILES IDX 22 25 21 26
REMARK H PARENT 9 7 9 8
REMARK INDEX MAP 8 1 9 2 10 3 11 4 12 5 13 6 34 7 35 8 5 9 2 10 3 11 7 12 4 13
REMARK INDEX MAP 6 14 1 15 14 16 15 17 16 18 17 19 24 20 18 21 23 22 19 23
REMARK INDEX MAP 22 24 20 25 21 26
ROOT
ATOM      1  C   UNL     1     135.707 123.714 123.951  1.00  0.00    +0.037 C 
ATOM      2  C   UNL     1     136.234 122.276 124.147  1.00  0.00    +0.070 C 
ATOM      3  C   UNL     1     136.439 121.940 125.612  1.00  0.00    +0.261 C 
ATOM      4  N   UNL     1     135.157 122.166 126.338  1.00  0.00    -0.346 N 
ATOM      5  C   UNL     1     134.665 123.571 126.258  1.00  0.00    +0.268 C 
ATOM      6  C   UNL     1     134.425 123.969 124.799  1.00  0.00    +0.089 C 
ATOM      7  H   UNL     1     134.438 121.519 125.980  1.00  0.00    +0.346 HD
ATOM      8  H   UNL     1     135.285 121.908 127.326  1.00  0.00    +0.346 HD
ENDROOT
BRANCH   1   9
ATOM      9  C   UNL     1     135.543 123.976 122.464  1.00  0.00    -0.044 A 
ATOM     10  C   UNL     1     135.236 124.406 119.715  1.00  0.00    +0.123 A 
ATOM     11  C   UNL     1     135.369 125.493 120.566  1.00  0.00    +0.039 A 
ATOM     12  C   UNL     1     135.250 123.109 120.208  1.00  0.00    +0.039 A 
ATOM     13  C   UNL     1     135.522 125.281 121.938  1.00  0.00    +0.007 A 
ATOM     14  C   UNL     1     135.402 122.892 121.579  1.00  0.00    +0.007 A 
ATOM     15  F   UNL     1     135.094 124.612 118.399  1.00  0.00    -0.207 F 
ENDBRANCH   1   9
BRANCH   6  16
ATOM     16  C   UNL     1     133.974 125.448 124.787  1.00  0.00    +0.239 C 
BRANCH  16  17
ATOM     17  O   UNL     1     132.795 125.656 124.022  1.00  0.00    -0.493 OA
BRANCH  17  18
ATOM     18  C   UNL     1     131.652 126.066 124.651  1.00  0.00    +0.123 A 
ATOM     19  C   UNL     1     130.765 126.783 123.823  1.00  0.00    +0.050 A 
ATOM     20  C   UNL     1     131.317 125.830 125.986  1.00  0.00    +0.097 A 
ATOM     21  C   UNL     1     129.542 127.258 124.306  1.00  0.00    +0.054 A 
ATOM     22  C   UNL     1     130.102 126.309 126.437  1.00  0.00    +0.169 A 
ATOM     23  C   UNL     1     129.239 127.002 125.623  1.00  0.00    +0.166 A 
ATOM     24  O   UNL     1     129.617 126.159 127.700  1.00  0.00    -0.453 OA
ATOM     25  O   UNL     1     128.105 127.378 126.269  1.00  0.00    -0.454 OA
ATOM     26  C   UNL     1     128.364 126.874 127.595  1.00  0.00    +0.468 C 
ENDBRANCH  17  18
ENDBRANCH  16  17
ENDBRANCH   6  16
TORSDOF 4
ENDMDL
MODEL 18
REMARK VINA RESULT:    -8.441      3.749      6.731
REMARK INTER + INTRA:         -11.529
REMARK INTER:                 -10.757
REMARK INTRA:                  -0.772
REMARK UNBOUND:                -1.114
REMARK SMILES Fc1ccc([C@@H]2CC[NH2+]C[C@H]2COc2ccc3c(c2)OCO3)cc1
REMARK SMILES IDX 6 1 7 2 8 3 9 4 10 5 11 6 5 9 2 10 3 11 24 12 4 13 23 14
REMARK SMILES IDX 1 15 12 16 13 17 14 18 15 19 19 20 16 21 18 22 17 23 20 24
REMARK SMILES IDX 22 25 21 26
REMARK H PARENT 9 7 9 8
REMARK INDEX MAP 8 1 9 2 10 3 11 4 12 5 13 6 34 7 35 8 5 9 2 10 3 11 7 12 4 13
REMARK INDEX MAP 6 14 1 15 14 16 15 17 16 18 17 19 24 20 18 21 23 22 19 23
REMARK INDEX MAP 22 24 20 25 21 26
ROOT
ATOM      1  C   UNL     1     135.207 125.138 121.926  1.00  0.00    +0.037 C 
ATOM      2  C   UNL     1     136.447 126.057 121.932  1.00  0.00    +0.070 C 
ATOM      3  C   UNL     1     136.658 126.719 123.280  1.00  0.00    +0.261 C 
ATOM      4  N   UNL     1     136.745 125.660 124.325  1.00  0.00    -0.346 N 
ATOM      5  C   UNL     1     135.523 124.813 124.420  1.00  0.00    +0.268 C 
ATOM      6  C   UNL     1     135.261 124.103 123.089  1.00  0.00    +0.089 C 
ATOM      7  H   UNL     1     137.572 125.069 124.150  1.00  0.00    +0.346 HD
ATOM      8  H   UNL     1     136.921 126.106 125.236  1.00  0.00    +0.346 HD
ENDROOT
BRANCH   1   9
ATOM      9  C   UNL     1     135.057 124.527 120.543  1.00  0.00    -0.044 A 
ATOM     10  C   UNL     1     134.808 123.357 118.012  1.00  0.00    +0.123 A 
ATOM     11  C   UNL     1     134.237 124.598 118.251  1.00  0.00    +0.039 A 
ATOM     12  C   UNL     1     135.498 122.686 119.012  1.00  0.00    +0.039 A 
ATOM     13  C   UNL     1     134.359 125.184 119.513  1.00  0.00    +0.007 A 
ATOM     14  C   UNL     1     135.623 123.268 120.275  1.00  0.00    +0.007 A 
ATOM     15  F   UNL     1     134.692 122.799 116.800  1.00  0.00    -0.207 F 
ENDBRANCH   1   9
BRANCH   6  16
ATOM     16  C   UNL     1     133.953 123.293 123.241  1.00  0.00    +0.239 C 
BRANCH  16  17
ATOM     17  O   UNL     1     132.801 124.032 122.861  1.00  0.00    -0.493 OA
BRANCH  17  18
ATOM     18  C   UNL     1     132.067 124.670 123.823  1.00  0.00    +0.123 A 
ATOM     19  C   UNL     1     131.638 125.962 123.456  1.00  0.00    +0.050 A 
ATOM     20  C   UNL     1     131.726 124.156 125.075  1.00  0.00    +0.097 A 
ATOM     21  C   UNL     1     130.863 126.743 124.318  1.00  0.00    +0.054 A 
ATOM     22  C   UNL     1     130.958 124.947 125.907  1.00  0.00    +0.169 A 
ATOM     23  C   UNL     1     130.537 126.202 125.541  1.00  0.00    +0.166 A 
ATOM     24  O   UNL     1     130.529 124.597 127.150  1.00  0.00    -0.453 OA
ATOM     25  O   UNL     1     129.794 126.803 126.507  1.00  0.00    -0.454 OA
ATOM     26  C   UNL     1     129.822 125.797 127.540  1.00  0.00    +0.468 C 
ENDBRANCH  17  18
ENDBRANCH  16  17
ENDBRANCH   6  16
TORSDOF 4
ENDMDL
MODEL 19
REMARK VINA RESULT:    -8.202      4.205      6.643
REMARK INTER + INTRA:         -11.234
REMARK INTER:                  -9.492
REMARK INTRA:                  -1.741
REMARK UNBOUND:                -1.114
REMARK SMILES Fc1ccc([C@@H]2CC[NH2+]C[C@H]2COc2ccc3c(c2)OCO3)cc1
REMARK SMILES IDX 6 1 7 2 8 3 9 4 10 5 11 6 5 9 2 10 3 11 24 12 4 13 23 14
REMARK SMILES IDX 1 15 12 16 13 17 14 18 15 19 19 20 16 21 18 22 17 23 20 24
REMARK SMILES IDX 22 25 21 26
REMARK H PARENT 9 7 9 8
REMARK INDEX MAP 8 1 9 2 10 3 11 4 12 5 13 6 34 7 35 8 5 9 2 10 3 11 7 12 4 13
REMARK INDEX MAP 6 14 1 15 14 16 15 17 16 18 17 19 24 20 18 21 23 22 19 23
REMARK INDEX MAP 22 24 20 25 21 26
ROOT
ATOM      1  C   UNL     1     130.686 126.009 124.215  1.00  0.00    +0.037 C 
ATOM      2  C   UNL     1     130.503 127.486 123.803  1.00  0.00    +0.070 C 
ATOM      3  C   UNL     1     129.116 128.002 124.134  1.00  0.00    +0.261 C 
ATOM      4  N   UNL     1     128.863 127.794 125.588  1.00  0.00    -0.346 N 
ATOM      5  C   UNL     1     128.929 126.366 126.008  1.00  0.00    +0.268 C 
ATOM      6  C   UNL     1     130.315 125.788 125.712  1.00  0.00    +0.089 C 
ATOM      7  H   UNL     1     129.529 128.356 126.139  1.00  0.00    +0.346 HD
ATOM      8  H   UNL     1     127.934 128.174 125.820  1.00  0.00    +0.346 HD
ENDROOT
BRANCH   1   9
ATOM      9  C   UNL     1     132.089 125.566 123.839  1.00  0.00    -0.044 A 
ATOM     10  C   UNL     1     134.696 124.791 123.176  1.00  0.00    +0.123 A 
ATOM     11  C   UNL     1     133.622 124.043 122.717  1.00  0.00    +0.039 A 
ATOM     12  C   UNL     1     134.495 125.916 123.963  1.00  0.00    +0.039 A 
ATOM     13  C   UNL     1     132.321 124.428 123.046  1.00  0.00    +0.007 A 
ATOM     14  C   UNL     1     133.196 126.304 124.296  1.00  0.00    +0.007 A 
ATOM     15  F   UNL     1     135.943 124.422 122.855  1.00  0.00    -0.207 F 
ENDBRANCH   1   9
BRANCH   6  16
ATOM     16  C   UNL     1     130.295 124.296 126.117  1.00  0.00    +0.239 C 
BRANCH  16  17
ATOM     17  O   UNL     1     131.287 123.975 127.083  1.00  0.00    -0.493 OA
BRANCH  17  18
ATOM     18  C   UNL     1     132.384 123.253 126.702  1.00  0.00    +0.123 A 
ATOM     19  C   UNL     1     132.102 121.912 126.368  1.00  0.00    +0.050 A 
ATOM     20  C   UNL     1     133.694 123.727 126.620  1.00  0.00    +0.097 A 
ATOM     21  C   UNL     1     133.109 121.042 125.942  1.00  0.00    +0.054 A 
ATOM     22  C   UNL     1     134.670 122.847 126.194  1.00  0.00    +0.169 A 
ATOM     23  C   UNL     1     134.388 121.543 125.864  1.00  0.00    +0.166 A 
ATOM     24  O   UNL     1     135.990 123.146 126.047  1.00  0.00    -0.453 OA
ATOM     25  O   UNL     1     135.492 120.857 125.471  1.00  0.00    -0.454 OA
ATOM     26  C   UNL     1     136.512 121.865 125.624  1.00  0.00    +0.468 C 
ENDBRANCH  17  18
ENDBRANCH  16  17
ENDBRANCH   6  16
TORSDOF 4
ENDMDL
MODEL 20
REMARK VINA RESULT:    -8.108      3.730      4.845
REMARK INTER + INTRA:         -11.118
REMARK INTER:                 -10.640
REMARK INTRA:                  -0.478
REMARK UNBOUND:                -1.114
REMARK SMILES Fc1ccc([C@@H]2CC[NH2+]C[C@H]2COc2ccc3c(c2)OCO3)cc1
REMARK SMILES IDX 6 1 7 2 8 3 9 4 10 5 11 6 5 9 2 10 3 11 24 12 4 13 23 14
REMARK SMILES IDX 1 15 12 16 13 17 14 18 15 19 19 20 16 21 18 22 17 23 20 24
REMARK SMILES IDX 22 25 21 26
REMARK H PARENT 9 7 9 8
REMARK INDEX MAP 8 1 9 2 10 3 11 4 12 5 13 6 34 7 35 8 5 9 2 10 3 11 7 12 4 13
REMARK INDEX MAP 6 14 1 15 14 16 15 17 16 18 17 19 24 20 18 21 23 22 19 23
REMARK INDEX MAP 22 24 20 25 21 26
ROOT
ATOM      1  C   UNL     1     131.959 124.594 125.589  1.00  0.00    +0.037 C 
ATOM      2  C   UNL     1     131.408 123.515 126.545  1.00  0.00    +0.070 C 
ATOM      3  C   UNL     1     132.141 122.196 126.398  1.00  0.00    +0.261 C 
ATOM      4  N   UNL     1     133.598 122.433 126.607  1.00  0.00    -0.346 N 
ATOM      5  C   UNL     1     134.192 123.394 125.635  1.00  0.00    +0.268 C 
ATOM      6  C   UNL     1     133.500 124.756 125.743  1.00  0.00    +0.089 C 
ATOM      7  H   UNL     1     133.761 122.759 127.571  1.00  0.00    +0.346 HD
ATOM      8  H   UNL     1     134.094 121.533 126.539  1.00  0.00    +0.346 HD
ENDROOT
BRANCH   1   9
ATOM      9  C   UNL     1     131.166 125.875 125.786  1.00  0.00    -0.044 A 
ATOM     10  C   UNL     1     129.727 128.240 126.200  1.00  0.00    +0.123 A 
ATOM     11  C   UNL     1     129.627 127.582 124.983  1.00  0.00    +0.039 A 
ATOM     12  C   UNL     1     130.533 127.742 127.214  1.00  0.00    +0.039 A 
ATOM     13  C   UNL     1     130.344 126.402 124.774  1.00  0.00    +0.007 A 
ATOM     14  C   UNL     1     131.253 126.563 127.010  1.00  0.00    +0.007 A 
ATOM     15  F   UNL     1     129.034 129.368 126.400  1.00  0.00    -0.207 F 
ENDBRANCH   1   9
BRANCH   6  16
ATOM     16  C   UNL     1     134.123 125.682 124.674  1.00  0.00    +0.239 C 
BRANCH  16  17
ATOM     17  O   UNL     1     133.382 125.699 123.462  1.00  0.00    -0.493 OA
BRANCH  17  18
ATOM     18  C   UNL     1     133.924 125.142 122.337  1.00  0.00    +0.123 A 
ATOM     19  C   UNL     1     134.930 124.188 122.594  1.00  0.00    +0.050 A 
ATOM     20  C   UNL     1     133.566 125.433 121.019  1.00  0.00    +0.097 A 
ATOM     21  C   UNL     1     135.574 123.512 121.555  1.00  0.00    +0.054 A 
ATOM     22  C   UNL     1     134.217 124.749 120.011  1.00  0.00    +0.169 A 
ATOM     23  C   UNL     1     135.192 123.816 120.268  1.00  0.00    +0.166 A 
ATOM     24  O   UNL     1     133.983 124.901 118.678  1.00  0.00    -0.453 OA
ATOM     25  O   UNL     1     135.697 123.266 119.134  1.00  0.00    -0.454 OA
ATOM     26  C   UNL     1     134.955 123.983 118.127  1.00  0.00    +0.468 C 
ENDBRANCH  17  18
ENDBRANCH  16  17
ENDBRANCH   6  16
TORSDOF 4
ENDMDL
