MODEL 1
REMARK VINA RESULT:   -10.448      0.000      0.000
REMARK INTER + INTRA:         -14.008
REMARK INTER:                 -12.892
REMARK INTRA:                  -1.117
REMARK UNBOUND:                -1.117
REMARK SMILES Fc1ccc([C@@H]2CC[NH2+]C[C@H]2COc2ccc3c(c2)OCO3)cc1
REMARK SMILES IDX 6 1 7 2 8 3 9 4 10 5 11 6 5 9 2 10 3 11 24 12 4 13 23 14
REMARK SMILES IDX 1 15 12 16 13 17 14 18 15 19 19 20 16 21 18 22 17 23 20 24
REMARK SMILES IDX 22 25 21 26
REMARK H PARENT 9 7 9 8
REMARK INDEX MAP 8 1 9 2 10 3 11 4 12 5 13 6 34 7 35 8 5 9 2 10 3 11 7 12 4 13
REMARK INDEX MAP 6 14 1 15 14 16 15 17 16 18 17 19 24 20 18 21 23 22 19 23
REMARK INDEX MAP 22 24 20 25 21 26
ROOT
ATOM      1  C   UNL     1     136.275 124.966 124.692  1.00  0.00    +0.037 C 
ATOM      2  C   UNL     1     137.235 125.296 125.855  1.00  0.00    +0.070 C 
ATOM      3  C   UNL     1     138.101 126.503 125.553  1.00  0.00    +0.261 C 
ATOM      4  N   UNL     1     137.216 127.655 125.219  1.00  0.00    -0.346 N 
ATOM      5  C   UNL     1     136.343 127.414 124.036  1.00  0.00    +0.268 C 
ATOM      6  C   UNL     1     135.431 126.210 124.283  1.00  0.00    +0.089 C 
ATOM      7  H   UNL     1     136.640 127.898 126.040  1.00  0.00    +0.346 HD
ATOM      8  H   UNL     1     137.802 128.484 125.046  1.00  0.00    +0.346 HD
ENDROOT
BRANCH   1   9
ATOM      9  C   UNL     1     135.457 123.741 125.064  1.00  0.00    -0.044 A 
ATOM     10  C   UNL     1     133.918 121.516 125.783  1.00  0.00    +0.123 A 
ATOM     11  C   UNL     1     134.927 121.375 124.841  1.00  0.00    +0.039 A 
ATOM     12  C   UNL     1     133.660 122.746 126.371  1.00  0.00    +0.039 A 
ATOM     13  C   UNL     1     135.695 122.484 124.481  1.00  0.00    +0.007 A 
ATOM     14  C   UNL     1     134.426 123.858 126.013  1.00  0.00    +0.007 A 
ATOM     15  F   UNL     1     133.186 120.450 126.131  1.00  0.00    -0.207 F 
ENDBRANCH   1   9
BRANCH   6  16
ATOM     16  C   UNL     1     134.599 125.983 123.000  1.00  0.00    +0.239 C 
BRANCH  16  17
ATOM     17  O   UNL     1     135.349 126.201 121.813  1.00  0.00    -0.493 OA
BRANCH  17  18
ATOM     18  C   UNL     1     135.227 125.322 120.773  1.00  0.00    +0.123 A 
ATOM     19  C   UNL     1     135.838 124.072 121.001  1.00  0.00    +0.050 A 
ATOM     20  C   UNL     1     134.570 125.562 119.565  1.00  0.00    +0.097 A 
ATOM     21  C   UNL     1     135.791 123.054 120.045  1.00  0.00    +0.054 A 
ATOM     22  C   UNL     1     134.536 124.538 118.637  1.00  0.00    +0.169 A 
ATOM     23  C   UNL     1     135.128 123.320 118.869  1.00  0.00    +0.166 A 
ATOM     24  O   UNL     1     133.931 124.599 117.420  1.00  0.00    -0.453 OA
ATOM     25  O   UNL     1     134.974 122.462 117.828  1.00  0.00    -0.454 OA
ATOM     26  C   UNL     1     134.247 123.288 116.895  1.00  0.00    +0.468 C 
ENDBRANCH  17  18
ENDBRANCH  16  17
ENDBRANCH   6  16
TORSDOF 4
ENDMDL
MODEL 2
REMARK VINA RESULT:    -9.771      2.439      3.634
REMARK INTER + INTRA:         -13.173
REMARK INTER:                 -12.101
REMARK INTRA:                  -1.071
REMARK UNBOUND:                -1.117
REMARK SMILES Fc1ccc([C@@H]2CC[NH2+]C[C@H]2COc2ccc3c(c2)OCO3)cc1
REMARK SMILES IDX 6 1 7 2 8 3 9 4 10 5 11 6 5 9 2 10 3 11 24 12 4 13 23 14
REMARK SMILES IDX 1 15 12 16 13 17 14 18 15 19 19 20 16 21 18 22 17 23 20 24
REMARK SMILES IDX 22 25 21 26
REMARK H PARENT 9 7 9 8
REMARK INDEX MAP 8 1 9 2 10 3 11 4 12 5 13 6 34 7 35 8 5 9 2 10 3 11 7 12 4 13
REMARK INDEX MAP 6 14 1 15 14 16 15 17 16 18 17 19 24 20 18 21 23 22 19 23
REMARK INDEX MAP 22 24 20 25 21 26
ROOT
ATOM      1  C   UNL     1     132.908 124.015 126.255  1.00  0.00    +0.037 C 
ATOM      2  C   UNL     1     131.567 123.270 126.428  1.00  0.00    +0.070 C 
ATOM      3  C   UNL     1     130.383 124.217 126.392  1.00  0.00    +0.261 C 
ATOM      4  N   UNL     1     130.428 124.993 125.121  1.00  0.00    -0.346 N 
ATOM      5  C   UNL     1     131.666 125.807 124.962  1.00  0.00    +0.268 C 
ATOM      6  C   UNL     1     132.903 124.905 124.977  1.00  0.00    +0.089 C 
ATOM      7  H   UNL     1     130.323 124.352 124.320  1.00  0.00    +0.346 HD
ATOM      8  H   UNL     1     129.607 125.613 125.081  1.00  0.00    +0.346 HD
ENDROOT
BRANCH   1   9
ATOM      9  C   UNL     1     134.041 123.003 126.316  1.00  0.00    -0.044 A 
ATOM     10  C   UNL     1     136.139 121.157 126.480  1.00  0.00    +0.123 A 
ATOM     11  C   UNL     1     135.312 121.157 125.366  1.00  0.00    +0.039 A 
ATOM     12  C   UNL     1     135.937 122.058 127.515  1.00  0.00    +0.039 A 
ATOM     13  C   UNL     1     134.264 122.076 125.282  1.00  0.00    +0.007 A 
ATOM     14  C   UNL     1     134.890 122.980 127.437  1.00  0.00    +0.007 A 
ATOM     15  F   UNL     1     137.145 120.277 126.555  1.00  0.00    -0.207 F 
ENDBRANCH   1   9
BRANCH   6  16
ATOM     16  C   UNL     1     134.147 125.816 124.868  1.00  0.00    +0.239 C 
BRANCH  16  17
ATOM     17  O   UNL     1     135.191 125.231 124.102  1.00  0.00    -0.493 OA
BRANCH  17  18
ATOM     18  C   UNL     1     135.037 125.098 122.750  1.00  0.00    +0.123 A 
ATOM     19  C   UNL     1     134.405 126.197 122.132  1.00  0.00    +0.050 A 
ATOM     20  C   UNL     1     135.445 124.010 121.977  1.00  0.00    +0.097 A 
ATOM     21  C   UNL     1     134.187 126.229 120.752  1.00  0.00    +0.054 A 
ATOM     22  C   UNL     1     135.219 124.067 120.616  1.00  0.00    +0.169 A 
ATOM     23  C   UNL     1     134.609 125.143 120.019  1.00  0.00    +0.166 A 
ATOM     24  O   UNL     1     135.562 123.102 119.719  1.00  0.00    -0.453 OA
ATOM     25  O   UNL     1     134.488 124.992 118.675  1.00  0.00    -0.454 OA
ATOM     26  C   UNL     1     135.060 123.681 118.493  1.00  0.00    +0.468 C 
ENDBRANCH  17  18
ENDBRANCH  16  17
ENDBRANCH   6  16
TORSDOF 4
ENDMDL
MODEL 3
REMARK VINA RESULT:    -9.380      3.698      6.189
REMARK INTER + INTRA:         -12.690
REMARK INTER:                 -11.345
REMARK INTRA:                  -1.346
REMARK UNBOUND:                -1.117
REMARK SMILES Fc1ccc([C@@H]2CC[NH2+]C[C@H]2COc2ccc3c(c2)OCO3)cc1
REMARK SMILES IDX 6 1 7 2 8 3 9 4 10 5 11 6 5 9 2 10 3 11 24 12 4 13 23 14
REMARK SMILES IDX 1 15 12 16 13 17 14 18 15 19 19 20 16 21 18 22 17 23 20 24
REMARK SMILES IDX 22 25 21 26
REMARK H PARENT 9 7 9 8
REMARK INDEX MAP 8 1 9 2 10 3 11 4 12 5 13 6 34 7 35 8 5 9 2 10 3 11 7 12 4 13
REMARK INDEX MAP 6 14 1 15 14 16 15 17 16 18 17 19 24 20 18 21 23 22 19 23
REMARK INDEX MAP 22 24 20 25 21 26
ROOT
ATOM      1  C   UNL     1     135.081 123.261 122.495  1.00  0.00    +0.037 C 
ATOM      2  C   UNL     1     136.480 123.289 121.843  1.00  0.00    +0.070 C 
ATOM      3  C   UNL     1     136.417 123.685 120.380  1.00  0.00    +0.261 C 
ATOM      4  N   UNL     1     135.725 125.000 120.270  1.00  0.00    -0.346 N 
ATOM      5  C   UNL     1     134.331 124.988 120.797  1.00  0.00    +0.268 C 
ATOM      6  C   UNL     1     134.327 124.606 122.280  1.00  0.00    +0.089 C 
ATOM      7  H   UNL     1     136.279 125.724 120.752  1.00  0.00    +0.346 HD
ATOM      8  H   UNL     1     135.711 125.286 119.281  1.00  0.00    +0.346 HD
ENDROOT
BRANCH   1   9
ATOM      9  C   UNL     1     135.227 122.843 123.949  1.00  0.00    -0.044 A 
ATOM     10  C   UNL     1     135.507 122.126 126.640  1.00  0.00    +0.123 A 
ATOM     11  C   UNL     1     135.156 121.161 125.708  1.00  0.00    +0.039 A 
ATOM     12  C   UNL     1     135.717 123.443 126.257  1.00  0.00    +0.039 A 
ATOM     13  C   UNL     1     135.016 121.516 124.365  1.00  0.00    +0.007 A 
ATOM     14  C   UNL     1     135.577 123.803 124.915  1.00  0.00    +0.007 A 
ATOM     15  F   UNL     1     135.645 121.782 127.927  1.00  0.00    -0.207 F 
ENDBRANCH   1   9
BRANCH   6  16
ATOM     16  C   UNL     1     132.853 124.556 122.745  1.00  0.00    +0.239 C 
BRANCH  16  17
ATOM     17  O   UNL     1     132.607 125.373 123.881  1.00  0.00    -0.493 OA
BRANCH  17  18
ATOM     18  C   UNL     1     131.768 124.920 124.862  1.00  0.00    +0.123 A 
ATOM     19  C   UNL     1     132.111 123.650 125.371  1.00  0.00    +0.050 A 
ATOM     20  C   UNL     1     130.659 125.595 125.373  1.00  0.00    +0.097 A 
ATOM     21  C   UNL     1     131.367 123.051 126.392  1.00  0.00    +0.054 A 
ATOM     22  C   UNL     1     129.942 124.982 126.383  1.00  0.00    +0.169 A 
ATOM     23  C   UNL     1     130.284 123.747 126.878  1.00  0.00    +0.166 A 
ATOM     24  O   UNL     1     128.845 125.503 126.998  1.00  0.00    -0.453 OA
ATOM     25  O   UNL     1     129.447 123.333 127.865  1.00  0.00    -0.454 OA
ATOM     26  C   UNL     1     128.514 124.432 127.912  1.00  0.00    +0.468 C 
ENDBRANCH  17  18
ENDBRANCH  16  17
ENDBRANCH   6  16
TORSDOF 4
ENDMDL
MODEL 4
REMARK VINA RESULT:    -9.379      2.543      3.506
REMARK INTER + INTRA:         -12.690
REMARK INTER:                 -12.122
REMARK INTRA:                  -0.568
REMARK UNBOUND:                -1.117
REMARK SMILES Fc1ccc([C@@H]2CC[NH2+]C[C@H]2COc2ccc3c(c2)OCO3)cc1
REMARK SMILES IDX 6 1 7 2 8 3 9 4 10 5 11 6 5 9 2 10 3 11 24 12 4 13 23 14
REMARK SMILES IDX 1 15 12 16 13 17 14 18 15 19 19 20 16 21 18 22 17 23 20 24
REMARK SMILES IDX 22 25 21 26
REMARK H PARENT 9 7 9 8
REMARK INDEX MAP 8 1 9 2 10 3 11 4 12 5 13 6 34 7 35 8 5 9 2 10 3 11 7 12 4 13
REMARK INDEX MAP 6 14 1 15 14 16 15 17 16 18 17 19 24 20 18 21 23 22 19 23
REMARK INDEX MAP 22 24 20 25 21 26
ROOT
ATOM      1  C   UNL     1     134.274 122.618 125.497  1.00  0.00    +0.037 C 
ATOM      2  C   UNL     1     135.103 122.181 126.725  1.00  0.00    +0.070 C 
ATOM      3  C   UNL     1     136.332 121.387 126.328  1.00  0.00    +0.261 C 
ATOM      4  N   UNL     1     137.138 122.198 125.373  1.00  0.00    -0.346 N 
ATOM      5  C   UNL     1     136.405 122.556 124.125  1.00  0.00    +0.268 C 
ATOM      6  C   UNL     1     135.154 123.374 124.458  1.00  0.00    +0.089 C 
ATOM      7  H   UNL     1     137.473 123.053 125.842  1.00  0.00    +0.346 HD
ATOM      8  H   UNL     1     137.990 121.674 125.127  1.00  0.00    +0.346 HD
ENDROOT
BRANCH   1   9
ATOM      9  C   UNL     1     133.058 123.391 125.978  1.00  0.00    -0.044 A 
ATOM     10  C   UNL     1     130.844 124.864 126.853  1.00  0.00    +0.123 A 
ATOM     11  C   UNL     1     130.772 123.479 126.813  1.00  0.00    +0.039 A 
ATOM     12  C   UNL     1     131.998 125.529 126.461  1.00  0.00    +0.039 A 
ATOM     13  C   UNL     1     131.876 122.742 126.376  1.00  0.00    +0.007 A 
ATOM     14  C   UNL     1     133.103 124.796 126.024  1.00  0.00    +0.007 A 
ATOM     15  F   UNL     1     129.786 125.568 127.276  1.00  0.00    -0.207 F 
ENDBRANCH   1   9
BRANCH   6  16
ATOM     16  C   UNL     1     134.416 123.658 123.130  1.00  0.00    +0.239 C 
BRANCH  16  17
ATOM     17  O   UNL     1     135.254 124.256 122.152  1.00  0.00    -0.493 OA
BRANCH  17  18
ATOM     18  C   UNL     1     135.104 123.910 120.838  1.00  0.00    +0.123 A 
ATOM     19  C   UNL     1     134.693 124.972 120.006  1.00  0.00    +0.050 A 
ATOM     20  C   UNL     1     135.322 122.645 120.289  1.00  0.00    +0.097 A 
ATOM     21  C   UNL     1     134.510 124.791 118.632  1.00  0.00    +0.054 A 
ATOM     22  C   UNL     1     135.135 122.493 118.929  1.00  0.00    +0.169 A 
ATOM     23  C   UNL     1     134.742 123.533 118.123  1.00  0.00    +0.166 A 
ATOM     24  O   UNL     1     135.314 121.337 118.234  1.00  0.00    -0.453 OA
ATOM     25  O   UNL     1     134.620 123.165 116.821  1.00  0.00    -0.454 OA
ATOM     26  C   UNL     1     134.948 121.763 116.901  1.00  0.00    +0.468 C 
ENDBRANCH  17  18
ENDBRANCH  16  17
ENDBRANCH   6  16
TORSDOF 4
ENDMDL
MODEL 5
REMARK VINA RESULT:    -9.290      3.793      6.032
REMARK INTER + INTRA:         -12.580
REMARK INTER:                 -11.695
REMARK INTRA:                  -0.885
REMARK UNBOUND:                -1.117
REMARK SMILES Fc1ccc([C@@H]2CC[NH2+]C[C@H]2COc2ccc3c(c2)OCO3)cc1
REMARK SMILES IDX 6 1 7 2 8 3 9 4 10 5 11 6 5 9 2 10 3 11 24 12 4 13 23 14
REMARK SMILES IDX 1 15 12 16 13 17 14 18 15 19 19 20 16 21 18 22 17 23 20 24
REMARK SMILES IDX 22 25 21 26
REMARK H PARENT 9 7 9 8
REMARK INDEX MAP 8 1 9 2 10 3 11 4 12 5 13 6 34 7 35 8 5 9 2 10 3 11 7 12 4 13
REMARK INDEX MAP 6 14 1 15 14 16 15 17 16 18 17 19 24 20 18 21 23 22 19 23
REMARK INDEX MAP 22 24 20 25 21 26
ROOT
ATOM      1  C   UNL     1     135.055 123.194 122.630  1.00  0.00    +0.037 C 
ATOM      2  C   UNL     1     136.484 123.270 122.050  1.00  0.00    +0.070 C 
ATOM      3  C   UNL     1     136.482 123.637 120.579  1.00  0.00    +0.261 C 
ATOM      4  N   UNL     1     135.745 124.921 120.408  1.00  0.00    -0.346 N 
ATOM      5  C   UNL     1     134.327 124.860 120.862  1.00  0.00    +0.268 C 
ATOM      6  C   UNL     1     134.259 124.504 122.350  1.00  0.00    +0.089 C 
ATOM      7  H   UNL     1     136.242 125.675 120.904  1.00  0.00    +0.346 HD
ATOM      8  H   UNL     1     135.771 125.189 119.414  1.00  0.00    +0.346 HD
ENDROOT
BRANCH   1   9
ATOM      9  C   UNL     1     135.141 122.808 124.096  1.00  0.00    -0.044 A 
ATOM     10  C   UNL     1     135.300 122.150 126.812  1.00  0.00    +0.123 A 
ATOM     11  C   UNL     1     135.194 121.139 125.869  1.00  0.00    +0.039 A 
ATOM     12  C   UNL     1     135.326 123.483 126.428  1.00  0.00    +0.039 A 
ATOM     13  C   UNL     1     135.114 121.465 124.513  1.00  0.00    +0.007 A 
ATOM     14  C   UNL     1     135.245 123.814 125.074  1.00  0.00    +0.007 A 
ATOM     15  F   UNL     1     135.381 121.834 128.111  1.00  0.00    -0.207 F 
ENDBRANCH   1   9
BRANCH   6  16
ATOM     16  C   UNL     1     132.766 124.401 122.738  1.00  0.00    +0.239 C 
BRANCH  16  17
ATOM     17  O   UNL     1     132.087 125.646 122.645  1.00  0.00    -0.493 OA
BRANCH  17  18
ATOM     18  C   UNL     1     131.585 126.221 123.779  1.00  0.00    +0.123 A 
ATOM     19  C   UNL     1     132.308 125.914 124.950  1.00  0.00    +0.050 A 
ATOM     20  C   UNL     1     130.466 127.053 123.855  1.00  0.00    +0.097 A 
ATOM     21  C   UNL     1     131.938 126.436 126.192  1.00  0.00    +0.054 A 
ATOM     22  C   UNL     1     130.122 127.557 125.094  1.00  0.00    +0.169 A 
ATOM     23  C   UNL     1     130.835 127.259 126.230  1.00  0.00    +0.166 A 
ATOM     24  O   UNL     1     129.073 128.387 125.343  1.00  0.00    -0.453 OA
ATOM     25  O   UNL     1     130.326 127.860 127.336  1.00  0.00    -0.454 OA
ATOM     26  C   UNL     1     129.186 128.545 126.776  1.00  0.00    +0.468 C 
ENDBRANCH  17  18
ENDBRANCH  16  17
ENDBRANCH   6  16
TORSDOF 4
ENDMDL
MODEL 6
REMARK VINA RESULT:    -9.171      3.619      4.727
REMARK INTER + INTRA:         -12.432
REMARK INTER:                 -10.980
REMARK INTRA:                  -1.452
REMARK UNBOUND:                -1.117
REMARK SMILES Fc1ccc([C@@H]2CC[NH2+]C[C@H]2COc2ccc3c(c2)OCO3)cc1
REMARK SMILES IDX 6 1 7 2 8 3 9 4 10 5 11 6 5 9 2 10 3 11 24 12 4 13 23 14
REMARK SMILES IDX 1 15 12 16 13 17 14 18 15 19 19 20 16 21 18 22 17 23 20 24
REMARK SMILES IDX 22 25 21 26
REMARK H PARENT 9 7 9 8
REMARK INDEX MAP 8 1 9 2 10 3 11 4 12 5 13 6 34 7 35 8 5 9 2 10 3 11 7 12 4 13
REMARK INDEX MAP 6 14 1 15 14 16 15 17 16 18 17 19 24 20 18 21 23 22 19 23
REMARK INDEX MAP 22 24 20 25 21 26
ROOT
ATOM      1  C   UNL     1     130.850 125.806 126.432  1.00  0.00    +0.037 C 
ATOM      2  C   UNL     1     129.789 125.636 127.541  1.00  0.00    +0.070 C 
ATOM      3  C   UNL     1     128.824 126.805 127.589  1.00  0.00    +0.261 C 
ATOM      4  N   UNL     1     128.202 126.966 126.245  1.00  0.00    -0.346 N 
ATOM      5  C   UNL     1     129.187 127.234 125.159  1.00  0.00    +0.268 C 
ATOM      6  C   UNL     1     130.186 126.080 125.050  1.00  0.00    +0.089 C 
ATOM      7  H   UNL     1     127.646 126.128 126.018  1.00  0.00    +0.346 HD
ATOM      8  H   UNL     1     127.522 127.739 126.284  1.00  0.00    +0.346 HD
ENDROOT
BRANCH   1   9
ATOM      9  C   UNL     1     131.782 124.607 126.459  1.00  0.00    -0.044 A 
ATOM     10  C   UNL     1     133.457 122.364 126.505  1.00  0.00    +0.123 A 
ATOM     11  C   UNL     1     134.014 123.634 126.511  1.00  0.00    +0.039 A 
ATOM     12  C   UNL     1     132.081 122.191 126.473  1.00  0.00    +0.039 A 
ATOM     13  C   UNL     1     133.181 124.755 126.488  1.00  0.00    +0.007 A 
ATOM     14  C   UNL     1     131.243 123.308 126.449  1.00  0.00    +0.007 A 
ATOM     15  F   UNL     1     134.259 121.292 126.532  1.00  0.00    -0.207 F 
ENDBRANCH   1   9
BRANCH   6  16
ATOM     16  C   UNL     1     131.208 126.449 123.949  1.00  0.00    +0.239 C 
BRANCH  16  17
ATOM     17  O   UNL     1     131.279 125.475 122.917  1.00  0.00    -0.493 OA
BRANCH  17  18
ATOM     18  C   UNL     1     132.502 125.018 122.510  1.00  0.00    +0.123 A 
ATOM     19  C   UNL     1     132.899 123.813 123.125  1.00  0.00    +0.050 A 
ATOM     20  C   UNL     1     133.338 125.626 121.572  1.00  0.00    +0.097 A 
ATOM     21  C   UNL     1     134.115 123.201 122.808  1.00  0.00    +0.054 A 
ATOM     22  C   UNL     1     134.533 124.999 121.275  1.00  0.00    +0.169 A 
ATOM     23  C   UNL     1     134.912 123.822 121.874  1.00  0.00    +0.166 A 
ATOM     24  O   UNL     1     135.456 125.448 120.381  1.00  0.00    -0.453 OA
ATOM     25  O   UNL     1     136.119 123.382 121.436  1.00  0.00    -0.454 OA
ATOM     26  C   UNL     1     136.479 124.434 120.517  1.00  0.00    +0.468 C 
ENDBRANCH  17  18
ENDBRANCH  16  17
ENDBRANCH   6  16
TORSDOF 4
ENDMDL
MODEL 7
REMARK VINA RESULT:    -9.105      3.624      6.003
REMARK INTER + INTRA:         -12.351
REMARK INTER:                 -11.103
REMARK INTRA:                  -1.248
REMARK UNBOUND:                -1.117
REMARK SMILES Fc1ccc([C@@H]2CC[NH2+]C[C@H]2COc2ccc3c(c2)OCO3)cc1
REMARK SMILES IDX 6 1 7 2 8 3 9 4 10 5 11 6 5 9 2 10 3 11 24 12 4 13 23 14
REMARK SMILES IDX 1 15 12 16 13 17 14 18 15 19 19 20 16 21 18 22 17 23 20 24
REMARK SMILES IDX 22 25 21 26
REMARK H PARENT 9 7 9 8
REMARK INDEX MAP 8 1 9 2 10 3 11 4 12 5 13 6 34 7 35 8 5 9 2 10 3 11 7 12 4 13
REMARK INDEX MAP 6 14 1 15 14 16 15 17 16 18 17 19 24 20 18 21 23 22 19 23
REMARK INDEX MAP 22 24 20 25 21 26
ROOT
ATOM      1  C   UNL     1     135.367 124.488 123.541  1.00  0.00    +0.037 C 
ATOM      2  C   UNL     1     136.470 125.567 123.613  1.00  0.00    +0.070 C 
ATOM      3  C   UNL     1     136.477 126.455 122.384  1.00  0.00    +0.261 C 
ATOM      4  N   UNL     1     135.123 127.055 122.219  1.00  0.00    -0.346 N 
ATOM      5  C   UNL     1     134.040 126.046 122.043  1.00  0.00    +0.268 C 
ATOM      6  C   UNL     1     133.971 125.122 123.262  1.00  0.00    +0.089 C 
ATOM      7  H   UNL     1     134.913 127.662 123.025  1.00  0.00    +0.346 HD
ATOM      8  H   UNL     1     135.136 127.684 121.403  1.00  0.00    +0.346 HD
ENDROOT
BRANCH   1   9
ATOM      9  C   UNL     1     135.434 123.635 124.796  1.00  0.00    -0.044 A 
ATOM     10  C   UNL     1     135.588 122.024 127.080  1.00  0.00    +0.123 A 
ATOM     11  C   UNL     1     135.002 123.279 127.166  1.00  0.00    +0.039 A 
ATOM     12  C   UNL     1     136.101 121.559 125.878  1.00  0.00    +0.039 A 
ATOM     13  C   UNL     1     134.925 124.084 126.027  1.00  0.00    +0.007 A 
ATOM     14  C   UNL     1     136.027 122.361 124.737  1.00  0.00    +0.007 A 
ATOM     15  F   UNL     1     135.656 121.252 128.172  1.00  0.00    -0.207 F 
ENDBRANCH   1   9
BRANCH   6  16
ATOM     16  C   UNL     1     132.872 124.070 122.988  1.00  0.00    +0.239 C 
BRANCH  16  17
ATOM     17  O   UNL     1     131.561 124.582 123.180  1.00  0.00    -0.493 OA
BRANCH  17  18
ATOM     18  C   UNL     1     131.250 125.203 124.359  1.00  0.00    +0.123 A 
ATOM     19  C   UNL     1     131.271 124.350 125.481  1.00  0.00    +0.050 A 
ATOM     20  C   UNL     1     130.935 126.553 124.521  1.00  0.00    +0.097 A 
ATOM     21  C   UNL     1     130.995 124.829 126.765  1.00  0.00    +0.054 A 
ATOM     22  C   UNL     1     130.668 127.002 125.800  1.00  0.00    +0.169 A 
ATOM     23  C   UNL     1     130.696 126.167 126.890  1.00  0.00    +0.166 A 
ATOM     24  O   UNL     1     130.356 128.283 126.135  1.00  0.00    -0.453 OA
ATOM     25  O   UNL     1     130.404 126.814 128.048  1.00  0.00    -0.454 OA
ATOM     26  C   UNL     1     130.152 128.148 127.561  1.00  0.00    +0.468 C 
ENDBRANCH  17  18
ENDBRANCH  16  17
ENDBRANCH   6  16
TORSDOF 4
ENDMDL
MODEL 8
REMARK VINA RESULT:    -9.067      4.695      7.760
REMARK INTER + INTRA:         -12.304
REMARK INTER:                 -11.691
REMARK INTRA:                  -0.613
REMARK UNBOUND:                -1.117
REMARK SMILES Fc1ccc([C@@H]2CC[NH2+]C[C@H]2COc2ccc3c(c2)OCO3)cc1
REMARK SMILES IDX 6 1 7 2 8 3 9 4 10 5 11 6 5 9 2 10 3 11 24 12 4 13 23 14
REMARK SMILES IDX 1 15 12 16 13 17 14 18 15 19 19 20 16 21 18 22 17 23 20 24
REMARK SMILES IDX 22 25 21 26
REMARK H PARENT 9 7 9 8
REMARK INDEX MAP 8 1 9 2 10 3 11 4 12 5 13 6 34 7 35 8 5 9 2 10 3 11 7 12 4 13
REMARK INDEX MAP 6 14 1 15 14 16 15 17 16 18 17 19 24 20 18 21 23 22 19 23
REMARK INDEX MAP 22 24 20 25 21 26
ROOT
ATOM      1  C   UNL     1     134.969 123.525 123.877  1.00  0.00    +0.037 C 
ATOM      2  C   UNL     1     136.222 122.624 123.932  1.00  0.00    +0.070 C 
ATOM      3  C   UNL     1     136.430 122.025 125.309  1.00  0.00    +0.261 C 
ATOM      4  N   UNL     1     135.197 121.286 125.702  1.00  0.00    -0.346 N 
ATOM      5  C   UNL     1     133.980 122.144 125.759  1.00  0.00    +0.268 C 
ATOM      6  C   UNL     1     133.705 122.772 124.390  1.00  0.00    +0.089 C 
ATOM      7  H   UNL     1     135.043 120.500 125.053  1.00  0.00    +0.346 HD
ATOM      8  H   UNL     1     135.349 120.851 126.622  1.00  0.00    +0.346 HD
ENDROOT
BRANCH   1   9
ATOM      9  C   UNL     1     134.839 124.096 122.475  1.00  0.00    -0.044 A 
ATOM     10  C   UNL     1     134.618 125.102 119.872  1.00  0.00    +0.123 A 
ATOM     11  C   UNL     1     134.183 125.871 120.941  1.00  0.00    +0.039 A 
ATOM     12  C   UNL     1     135.158 123.840 120.075  1.00  0.00    +0.039 A 
ATOM     13  C   UNL     1     134.292 125.371 122.241  1.00  0.00    +0.007 A 
ATOM     14  C   UNL     1     135.268 123.336 121.373  1.00  0.00    +0.007 A 
ATOM     15  F   UNL     1     134.517 125.585 118.627  1.00  0.00    -0.207 F 
ENDBRANCH   1   9
BRANCH   6  16
ATOM     16  C   UNL     1     132.470 123.691 124.536  1.00  0.00    +0.239 C 
BRANCH  16  17
ATOM     17  O   UNL     1     132.549 124.540 125.672  1.00  0.00    -0.493 OA
BRANCH  17  18
ATOM     18  C   UNL     1     131.437 124.727 126.447  1.00  0.00    +0.123 A 
ATOM     19  C   UNL     1     131.235 126.064 126.849  1.00  0.00    +0.050 A 
ATOM     20  C   UNL     1     130.533 123.740 126.842  1.00  0.00    +0.097 A 
ATOM     21  C   UNL     1     130.135 126.429 127.630  1.00  0.00    +0.054 A 
ATOM     22  C   UNL     1     129.454 124.128 127.612  1.00  0.00    +0.169 A 
ATOM     23  C   UNL     1     129.258 125.433 127.995  1.00  0.00    +0.166 A 
ATOM     24  O   UNL     1     128.476 123.300 128.072  1.00  0.00    -0.453 OA
ATOM     25  O   UNL     1     128.138 125.592 128.746  1.00  0.00    -0.454 OA
ATOM     26  C   UNL     1     127.664 124.232 128.823  1.00  0.00    +0.468 C 
ENDBRANCH  17  18
ENDBRANCH  16  17
ENDBRANCH   6  16
TORSDOF 4
ENDMDL
MODEL 9
REMARK VINA RESULT:    -8.982      4.373      7.533
REMARK INTER + INTRA:         -12.199
REMARK INTER:                 -11.469
REMARK INTRA:                  -0.730
REMARK UNBOUND:                -1.117
REMARK SMILES Fc1ccc([C@@H]2CC[NH2+]C[C@H]2COc2ccc3c(c2)OCO3)cc1
REMARK SMILES IDX 6 1 7 2 8 3 9 4 10 5 11 6 5 9 2 10 3 11 24 12 4 13 23 14
REMARK SMILES IDX 1 15 12 16 13 17 14 18 15 19 19 20 16 21 18 22 17 23 20 24
REMARK SMILES IDX 22 25 21 26
REMARK H PARENT 9 7 9 8
REMARK INDEX MAP 8 1 9 2 10 3 11 4 12 5 13 6 34 7 35 8 5 9 2 10 3 11 7 12 4 13
REMARK INDEX MAP 6 14 1 15 14 16 15 17 16 18 17 19 24 20 18 21 23 22 19 23
REMARK INDEX MAP 22 24 20 25 21 26
ROOT
ATOM      1  C   UNL     1     134.832 123.383 124.006  1.00  0.00    +0.037 C 
ATOM      2  C   UNL     1     136.172 122.627 124.130  1.00  0.00    +0.070 C 
ATOM      3  C   UNL     1     136.344 121.994 125.497  1.00  0.00    +0.261 C 
ATOM      4  N   UNL     1     135.178 121.105 125.763  1.00  0.00    -0.346 N 
ATOM      5  C   UNL     1     133.869 121.818 125.753  1.00  0.00    +0.268 C 
ATOM      6  C   UNL     1     133.628 122.471 124.389  1.00  0.00    +0.089 C 
ATOM      7  H   UNL     1     135.165 120.336 125.077  1.00  0.00    +0.346 HD
ATOM      8  H   UNL     1     135.309 120.650 126.677  1.00  0.00    +0.346 HD
ENDROOT
BRANCH   1   9
ATOM      9  C   UNL     1     134.743 123.997 122.619  1.00  0.00    -0.044 A 
ATOM     10  C   UNL     1     134.602 125.084 120.043  1.00  0.00    +0.123 A 
ATOM     11  C   UNL     1     134.061 125.784 121.112  1.00  0.00    +0.039 A 
ATOM     12  C   UNL     1     135.209 123.851 120.234  1.00  0.00    +0.039 A 
ATOM     13  C   UNL     1     134.129 125.243 122.398  1.00  0.00    +0.007 A 
ATOM     14  C   UNL     1     135.280 123.306 121.518  1.00  0.00    +0.007 A 
ATOM     15  F   UNL     1     134.539 125.606 118.812  1.00  0.00    -0.207 F 
ENDBRANCH   1   9
BRANCH   6  16
ATOM     16  C   UNL     1     132.288 123.238 124.469  1.00  0.00    +0.239 C 
BRANCH  16  17
ATOM     17  O   UNL     1     131.653 123.105 125.733  1.00  0.00    -0.493 OA
BRANCH  17  18
ATOM     18  C   UNL     1     131.177 124.221 126.363  1.00  0.00    +0.123 A 
ATOM     19  C   UNL     1     130.005 124.000 127.117  1.00  0.00    +0.050 A 
ATOM     20  C   UNL     1     131.743 125.496 126.321  1.00  0.00    +0.097 A 
ATOM     21  C   UNL     1     129.399 125.033 127.838  1.00  0.00    +0.054 A 
ATOM     22  C   UNL     1     131.125 126.498 127.043  1.00  0.00    +0.169 A 
ATOM     23  C   UNL     1     129.988 126.276 127.781  1.00  0.00    +0.166 A 
ATOM     24  O   UNL     1     131.549 127.790 127.120  1.00  0.00    -0.453 OA
ATOM     25  O   UNL     1     129.550 127.396 128.412  1.00  0.00    -0.454 OA
ATOM     26  C   UNL     1     130.521 128.362 127.961  1.00  0.00    +0.468 C 
ENDBRANCH  17  18
ENDBRANCH  16  17
ENDBRANCH   6  16
TORSDOF 4
ENDMDL
MODEL 10
REMARK VINA RESULT:    -8.982      3.442      4.766
REMARK INTER + INTRA:         -12.199
REMARK INTER:                 -11.094
REMARK INTRA:                  -1.105
REMARK UNBOUND:                -1.117
REMARK SMILES Fc1ccc([C@@H]2CC[NH2+]C[C@H]2COc2ccc3c(c2)OCO3)cc1
REMARK SMILES IDX 6 1 7 2 8 3 9 4 10 5 11 6 5 9 2 10 3 11 24 12 4 13 23 14
REMARK SMILES IDX 1 15 12 16 13 17 14 18 15 19 19 20 16 21 18 22 17 23 20 24
REMARK SMILES IDX 22 25 21 26
REMARK H PARENT 9 7 9 8
REMARK INDEX MAP 8 1 9 2 10 3 11 4 12 5 13 6 34 7 35 8 5 9 2 10 3 11 7 12 4 13
REMARK INDEX MAP 6 14 1 15 14 16 15 17 16 18 17 19 24 20 18 21 23 22 19 23
REMARK INDEX MAP 22 24 20 25 21 26
ROOT
ATOM      1  C   UNL     1     132.456 124.430 125.327  1.00  0.00    +0.037 C 
ATOM      2  C   UNL     1     131.769 123.379 126.226  1.00  0.00    +0.070 C 
ATOM      3  C   UNL     1     132.532 122.069 126.254  1.00  0.00    +0.261 C 
ATOM      4  N   UNL     1     133.933 122.341 126.685  1.00  0.00    -0.346 N 
ATOM      5  C   UNL     1     134.666 123.274 125.784  1.00  0.00    +0.268 C 
ATOM      6  C   UNL     1     133.950 124.626 125.723  1.00  0.00    +0.089 C 
ATOM      7  H   UNL     1     133.933 122.708 127.649  1.00  0.00    +0.346 HD
ATOM      8  H   UNL     1     134.443 121.448 126.736  1.00  0.00    +0.346 HD
ENDROOT
BRANCH   1   9
ATOM      9  C   UNL     1     131.626 125.703 125.341  1.00  0.00    -0.044 A 
ATOM     10  C   UNL     1     130.106 128.052 125.420  1.00  0.00    +0.123 A 
ATOM     11  C   UNL     1     130.343 127.432 124.202  1.00  0.00    +0.039 A 
ATOM     12  C   UNL     1     130.615 127.526 126.598  1.00  0.00    +0.039 A 
ATOM     13  C   UNL     1     131.102 126.260 124.160  1.00  0.00    +0.007 A 
ATOM     14  C   UNL     1     131.374 126.354 126.561  1.00  0.00    +0.007 A 
ATOM     15  F   UNL     1     129.374 129.173 125.458  1.00  0.00    -0.207 F 
ENDBRANCH   1   9
BRANCH   6  16
ATOM     16  C   UNL     1     134.727 125.522 124.730  1.00  0.00    +0.239 C 
BRANCH  16  17
ATOM     17  O   UNL     1     135.552 124.775 123.847  1.00  0.00    -0.493 OA
BRANCH  17  18
ATOM     18  C   UNL     1     135.270 124.770 122.509  1.00  0.00    +0.123 A 
ATOM     19  C   UNL     1     134.532 125.890 122.073  1.00  0.00    +0.050 A 
ATOM     20  C   UNL     1     135.646 123.789 121.591  1.00  0.00    +0.097 A 
ATOM     21  C   UNL     1     134.176 126.049 120.731  1.00  0.00    +0.054 A 
ATOM     22  C   UNL     1     135.283 123.970 120.270  1.00  0.00    +0.169 A 
ATOM     23  C   UNL     1     134.570 125.067 119.851  1.00  0.00    +0.166 A 
ATOM     24  O   UNL     1     135.577 123.120 119.249  1.00  0.00    -0.453 OA
ATOM     25  O   UNL     1     134.322 125.046 118.516  1.00  0.00    -0.454 OA
ATOM     26  C   UNL     1     134.929 123.792 118.143  1.00  0.00    +0.468 C 
ENDBRANCH  17  18
ENDBRANCH  16  17
ENDBRANCH   6  16
TORSDOF 4
ENDMDL
MODEL 11
REMARK VINA RESULT:    -8.918      2.610      3.904
REMARK INTER + INTRA:         -12.120
REMARK INTER:                 -11.338
REMARK INTRA:                  -0.782
REMARK UNBOUND:                -1.117
REMARK SMILES Fc1ccc([C@@H]2CC[NH2+]C[C@H]2COc2ccc3c(c2)OCO3)cc1
REMARK SMILES IDX 6 1 7 2 8 3 9 4 10 5 11 6 5 9 2 10 3 11 24 12 4 13 23 14
REMARK SMILES IDX 1 15 12 16 13 17 14 18 15 19 19 20 16 21 18 22 17 23 20 24
REMARK SMILES IDX 22 25 21 26
REMARK H PARENT 9 7 9 8
REMARK INDEX MAP 8 1 9 2 10 3 11 4 12 5 13 6 34 7 35 8 5 9 2 10 3 11 7 12 4 13
REMARK INDEX MAP 6 14 1 15 14 16 15 17 16 18 17 19 24 20 18 21 23 22 19 23
REMARK INDEX MAP 22 24 20 25 21 26
ROOT
ATOM      1  C   UNL     1     133.598 125.342 124.472  1.00  0.00    +0.037 C 
ATOM      2  C   UNL     1     133.161 124.164 125.370  1.00  0.00    +0.070 C 
ATOM      3  C   UNL     1     131.727 123.748 125.104  1.00  0.00    +0.261 C 
ATOM      4  N   UNL     1     131.583 123.427 123.656  1.00  0.00    -0.346 N 
ATOM      5  C   UNL     1     131.898 124.572 122.756  1.00  0.00    +0.268 C 
ATOM      6  C   UNL     1     133.343 125.033 122.967  1.00  0.00    +0.089 C 
ATOM      7  H   UNL     1     132.178 122.618 123.420  1.00  0.00    +0.346 HD
ATOM      8  H   UNL     1     130.618 123.112 123.480  1.00  0.00    +0.346 HD
ENDROOT
BRANCH   1   9
ATOM      9  C   UNL     1     135.034 125.707 124.808  1.00  0.00    -0.044 A 
ATOM     10  C   UNL     1     137.692 126.326 125.429  1.00  0.00    +0.123 A 
ATOM     11  C   UNL     1     136.793 127.350 125.173  1.00  0.00    +0.039 A 
ATOM     12  C   UNL     1     137.292 124.998 125.378  1.00  0.00    +0.039 A 
ATOM     13  C   UNL     1     135.466 127.044 124.863  1.00  0.00    +0.007 A 
ATOM     14  C   UNL     1     135.966 124.687 125.067  1.00  0.00    +0.007 A 
ATOM     15  F   UNL     1     138.963 126.622 125.731  1.00  0.00    -0.207 F 
ENDBRANCH   1   9
BRANCH   6  16
ATOM     16  C   UNL     1     133.582 126.254 122.048  1.00  0.00    +0.239 C 
BRANCH  16  17
ATOM     17  O   UNL     1     134.772 126.139 121.281  1.00  0.00    -0.493 OA
BRANCH  17  18
ATOM     18  C   UNL     1     134.883 125.131 120.364  1.00  0.00    +0.123 A 
ATOM     19  C   UNL     1     135.577 123.998 120.836  1.00  0.00    +0.050 A 
ATOM     20  C   UNL     1     134.379 125.142 119.062  1.00  0.00    +0.097 A 
ATOM     21  C   UNL     1     135.763 122.871 120.029  1.00  0.00    +0.054 A 
ATOM     22  C   UNL     1     134.575 124.016 118.287  1.00  0.00    +0.169 A 
ATOM     23  C   UNL     1     135.246 122.912 118.755  1.00  0.00    +0.166 A 
ATOM     24  O   UNL     1     134.142 123.856 117.007  1.00  0.00    -0.453 OA
ATOM     25  O   UNL     1     135.323 121.920 117.830  1.00  0.00    -0.454 OA
ATOM     26  C   UNL     1     134.654 122.536 116.710  1.00  0.00    +0.468 C 
ENDBRANCH  17  18
ENDBRANCH  16  17
ENDBRANCH   6  16
TORSDOF 4
ENDMDL
MODEL 12
REMARK VINA RESULT:    -8.906      3.851      6.795
REMARK INTER + INTRA:         -12.106
REMARK INTER:                 -11.241
REMARK INTRA:                  -0.865
REMARK UNBOUND:                -1.117
REMARK SMILES Fc1ccc([C@@H]2CC[NH2+]C[C@H]2COc2ccc3c(c2)OCO3)cc1
REMARK SMILES IDX 6 1 7 2 8 3 9 4 10 5 11 6 5 9 2 10 3 11 24 12 4 13 23 14
REMARK SMILES IDX 1 15 12 16 13 17 14 18 15 19 19 20 16 21 18 22 17 23 20 24
REMARK SMILES IDX 22 25 21 26
REMARK H PARENT 9 7 9 8
REMARK INDEX MAP 8 1 9 2 10 3 11 4 12 5 13 6 34 7 35 8 5 9 2 10 3 11 7 12 4 13
REMARK INDEX MAP 6 14 1 15 14 16 15 17 16 18 17 19 24 20 18 21 23 22 19 23
REMARK INDEX MAP 22 24 20 25 21 26
ROOT
ATOM      1  C   UNL     1     135.175 125.174 123.180  1.00  0.00    +0.037 C 
ATOM      2  C   UNL     1     136.482 125.954 123.436  1.00  0.00    +0.070 C 
ATOM      3  C   UNL     1     136.601 126.407 124.878  1.00  0.00    +0.261 C 
ATOM      4  N   UNL     1     136.482 125.215 125.765  1.00  0.00    -0.346 N 
ATOM      5  C   UNL     1     135.188 124.491 125.622  1.00  0.00    +0.268 C 
ATOM      6  C   UNL     1     135.012 123.994 124.184  1.00  0.00    +0.089 C 
ATOM      7  H   UNL     1     137.268 124.572 125.588  1.00  0.00    +0.346 HD
ATOM      8  H   UNL     1     136.595 125.517 126.744  1.00  0.00    +0.346 HD
ENDROOT
BRANCH   1   9
ATOM      9  C   UNL     1     135.124 124.770 121.717  1.00  0.00    -0.044 A 
ATOM     10  C   UNL     1     135.002 124.071 119.009  1.00  0.00    +0.123 A 
ATOM     11  C   UNL     1     135.756 123.300 119.881  1.00  0.00    +0.039 A 
ATOM     12  C   UNL     1     134.311 125.186 119.460  1.00  0.00    +0.039 A 
ATOM     13  C   UNL     1     135.819 123.646 121.232  1.00  0.00    +0.007 A 
ATOM     14  C   UNL     1     134.371 125.538 120.810  1.00  0.00    +0.007 A 
ATOM     15  F   UNL     1     134.940 123.733 117.714  1.00  0.00    -0.207 F 
ENDBRANCH   1   9
BRANCH   6  16
ATOM     16  C   UNL     1     133.630 123.307 124.093  1.00  0.00    +0.239 C 
BRANCH  16  17
ATOM     17  O   UNL     1     132.575 124.225 123.844  1.00  0.00    -0.493 OA
BRANCH  17  18
ATOM     18  C   UNL     1     131.867 124.734 124.898  1.00  0.00    +0.123 A 
ATOM     19  C   UNL     1     131.245 123.755 125.700  1.00  0.00    +0.050 A 
ATOM     20  C   UNL     1     131.730 126.085 125.222  1.00  0.00    +0.097 A 
ATOM     21  C   UNL     1     130.498 124.107 126.828  1.00  0.00    +0.054 A 
ATOM     22  C   UNL     1     130.988 126.405 126.342  1.00  0.00    +0.169 A 
ATOM     23  C   UNL     1     130.389 125.446 127.123  1.00  0.00    +0.166 A 
ATOM     24  O   UNL     1     130.763 127.665 126.804  1.00  0.00    -0.453 OA
ATOM     25  O   UNL     1     129.712 125.980 128.172  1.00  0.00    -0.454 OA
ATOM     26  C   UNL     1     129.920 127.389 127.946  1.00  0.00    +0.468 C 
ENDBRANCH  17  18
ENDBRANCH  16  17
ENDBRANCH   6  16
TORSDOF 4
ENDMDL
MODEL 13
REMARK VINA RESULT:    -8.846      4.360      7.028
REMARK INTER + INTRA:         -12.032
REMARK INTER:                 -11.134
REMARK INTRA:                  -0.897
REMARK UNBOUND:                -1.117
REMARK SMILES Fc1ccc([C@@H]2CC[NH2+]C[C@H]2COc2ccc3c(c2)OCO3)cc1
REMARK SMILES IDX 6 1 7 2 8 3 9 4 10 5 11 6 5 9 2 10 3 11 24 12 4 13 23 14
REMARK SMILES IDX 1 15 12 16 13 17 14 18 15 19 19 20 16 21 18 22 17 23 20 24
REMARK SMILES IDX 22 25 21 26
REMARK H PARENT 9 7 9 8
REMARK INDEX MAP 8 1 9 2 10 3 11 4 12 5 13 6 34 7 35 8 5 9 2 10 3 11 7 12 4 13
REMARK INDEX MAP 6 14 1 15 14 16 15 17 16 18 17 19 24 20 18 21 23 22 19 23
REMARK INDEX MAP 22 24 20 25 21 26
ROOT
ATOM      1  C   UNL     1     135.022 123.360 124.016  1.00  0.00    +0.037 C 
ATOM      2  C   UNL     1     136.303 122.498 124.047  1.00  0.00    +0.070 C 
ATOM      3  C   UNL     1     136.520 121.852 125.402  1.00  0.00    +0.261 C 
ATOM      4  N   UNL     1     135.308 121.060 125.754  1.00  0.00    -0.346 N 
ATOM      5  C   UNL     1     134.063 121.876 125.834  1.00  0.00    +0.268 C 
ATOM      6  C   UNL     1     133.780 122.548 124.488  1.00  0.00    +0.089 C 
ATOM      7  H   UNL     1     135.184 120.295 125.074  1.00  0.00    +0.346 HD
ATOM      8  H   UNL     1     135.466 120.594 126.659  1.00  0.00    +0.346 HD
ENDROOT
BRANCH   1   9
ATOM      9  C   UNL     1     134.885 123.982 122.636  1.00  0.00    -0.044 A 
ATOM     10  C   UNL     1     134.650 125.079 120.072  1.00  0.00    +0.123 A 
ATOM     11  C   UNL     1     134.237 125.816 121.172  1.00  0.00    +0.039 A 
ATOM     12  C   UNL     1     135.174 123.804 120.225  1.00  0.00    +0.039 A 
ATOM     13  C   UNL     1     134.353 125.271 122.452  1.00  0.00    +0.007 A 
ATOM     14  C   UNL     1     135.292 123.254 121.504  1.00  0.00    +0.007 A 
ATOM     15  F   UNL     1     134.542 125.607 118.846  1.00  0.00    -0.207 F 
ENDBRANCH   1   9
BRANCH   6  16
ATOM     16  C   UNL     1     132.515 123.421 124.659  1.00  0.00    +0.239 C 
BRANCH  16  17
ATOM     17  O   UNL     1     132.720 124.521 125.534  1.00  0.00    -0.493 OA
BRANCH  17  18
ATOM     18  C   UNL     1     131.840 125.567 125.513  1.00  0.00    +0.123 A 
ATOM     19  C   UNL     1     131.447 125.962 124.218  1.00  0.00    +0.050 A 
ATOM     20  C   UNL     1     131.326 126.234 126.627  1.00  0.00    +0.097 A 
ATOM     21  C   UNL     1     130.538 127.005 124.020  1.00  0.00    +0.054 A 
ATOM     22  C   UNL     1     130.429 127.260 126.404  1.00  0.00    +0.169 A 
ATOM     23  C   UNL     1     130.044 127.636 125.139  1.00  0.00    +0.166 A 
ATOM     24  O   UNL     1     129.826 128.004 127.372  1.00  0.00    -0.453 OA
ATOM     25  O   UNL     1     129.156 128.663 125.150  1.00  0.00    -0.454 OA
ATOM     26  C   UNL     1     129.048 128.918 126.565  1.00  0.00    +0.468 C 
ENDBRANCH  17  18
ENDBRANCH  16  17
ENDBRANCH   6  16
TORSDOF 4
ENDMDL
MODEL 14
REMARK VINA RESULT:    -8.654      3.141      6.214
REMARK INTER + INTRA:         -11.795
REMARK INTER:                 -11.245
REMARK INTRA:                  -0.550
REMARK UNBOUND:                -1.117
REMARK SMILES Fc1ccc([C@@H]2CC[NH2+]C[C@H]2COc2ccc3c(c2)OCO3)cc1
REMARK SMILES IDX 6 1 7 2 8 3 9 4 10 5 11 6 5 9 2 10 3 11 24 12 4 13 23 14
REMARK SMILES IDX 1 15 12 16 13 17 14 18 15 19 19 20 16 21 18 22 17 23 20 24
REMARK SMILES IDX 22 25 21 26
REMARK H PARENT 9 7 9 8
REMARK INDEX MAP 8 1 9 2 10 3 11 4 12 5 13 6 34 7 35 8 5 9 2 10 3 11 7 12 4 13
REMARK INDEX MAP 6 14 1 15 14 16 15 17 16 18 17 19 24 20 18 21 23 22 19 23
REMARK INDEX MAP 22 24 20 25 21 26
ROOT
ATOM      1  C   UNL     1     135.041 126.107 122.453  1.00  0.00    +0.037 C 
ATOM      2  C   UNL     1     136.446 126.691 122.720  1.00  0.00    +0.070 C 
ATOM      3  C   UNL     1     136.469 127.573 123.953  1.00  0.00    +0.261 C 
ATOM      4  N   UNL     1     135.964 126.787 125.114  1.00  0.00    -0.346 N 
ATOM      5  C   UNL     1     134.570 126.291 124.937  1.00  0.00    +0.268 C 
ATOM      6  C   UNL     1     134.481 125.379 123.710  1.00  0.00    +0.089 C 
ATOM      7  H   UNL     1     136.599 125.997 125.300  1.00  0.00    +0.346 HD
ATOM      8  H   UNL     1     136.010 127.375 125.958  1.00  0.00    +0.346 HD
ENDROOT
BRANCH   1   9
ATOM      9  C   UNL     1     135.098 125.251 121.199  1.00  0.00    -0.044 A 
ATOM     10  C   UNL     1     135.235 123.638 118.915  1.00  0.00    +0.123 A 
ATOM     11  C   UNL     1     134.420 124.760 118.912  1.00  0.00    +0.039 A 
ATOM     12  C   UNL     1     135.980 123.302 120.037  1.00  0.00    +0.039 A 
ATOM     13  C   UNL     1     134.350 125.566 120.051  1.00  0.00    +0.007 A 
ATOM     14  C   UNL     1     135.913 124.105 121.177  1.00  0.00    +0.007 A 
ATOM     15  F   UNL     1     135.304 122.869 117.821  1.00  0.00    -0.207 F 
ENDBRANCH   1   9
BRANCH   6  16
ATOM     16  C   UNL     1     133.004 124.949 123.554  1.00  0.00    +0.239 C 
BRANCH  16  17
ATOM     17  O   UNL     1     132.724 123.704 124.178  1.00  0.00    -0.493 OA
BRANCH  17  18
ATOM     18  C   UNL     1     133.722 123.053 124.851  1.00  0.00    +0.123 A 
ATOM     19  C   UNL     1     134.631 122.373 124.014  1.00  0.00    +0.050 A 
ATOM     20  C   UNL     1     133.897 123.021 126.235  1.00  0.00    +0.097 A 
ATOM     21  C   UNL     1     135.719 121.673 124.541  1.00  0.00    +0.054 A 
ATOM     22  C   UNL     1     134.981 122.323 126.730  1.00  0.00    +0.169 A 
ATOM     23  C   UNL     1     135.867 121.668 125.910  1.00  0.00    +0.166 A 
ATOM     24  O   UNL     1     135.305 122.200 128.047  1.00  0.00    -0.453 OA
ATOM     25  O   UNL     1     136.857 121.049 126.603  1.00  0.00    -0.454 OA
ATOM     26  C   UNL     1     136.477 121.357 127.960  1.00  0.00    +0.468 C 
ENDBRANCH  17  18
ENDBRANCH  16  17
ENDBRANCH   6  16
TORSDOF 4
ENDMDL
MODEL 15
REMARK VINA RESULT:    -8.597      3.176      5.959
REMARK INTER + INTRA:         -11.725
REMARK INTER:                  -9.607
REMARK INTRA:                  -2.117
REMARK UNBOUND:                -1.117
REMARK SMILES Fc1ccc([C@@H]2CC[NH2+]C[C@H]2COc2ccc3c(c2)OCO3)cc1
REMARK SMILES IDX 6 1 7 2 8 3 9 4 10 5 11 6 5 9 2 10 3 11 24 12 4 13 23 14
REMARK SMILES IDX 1 15 12 16 13 17 14 18 15 19 19 20 16 21 18 22 17 23 20 24
REMARK SMILES IDX 22 25 21 26
REMARK H PARENT 9 7 9 8
REMARK INDEX MAP 8 1 9 2 10 3 11 4 12 5 13 6 34 7 35 8 5 9 2 10 3 11 7 12 4 13
REMARK INDEX MAP 6 14 1 15 14 16 15 17 16 18 17 19 24 20 18 21 23 22 19 23
REMARK INDEX MAP 22 24 20 25 21 26
ROOT
ATOM      1  C   UNL     1     134.592 125.111 121.533  1.00  0.00    +0.037 C 
ATOM      2  C   UNL     1     133.641 125.110 120.316  1.00  0.00    +0.070 C 
ATOM      3  C   UNL     1     134.398 125.176 119.004  1.00  0.00    +0.261 C 
ATOM      4  N   UNL     1     135.368 124.046 118.953  1.00  0.00    -0.346 N 
ATOM      5  C   UNL     1     136.369 124.068 120.057  1.00  0.00    +0.268 C 
ATOM      6  C   UNL     1     135.667 123.990 121.415  1.00  0.00    +0.089 C 
ATOM      7  H   UNL     1     134.856 123.150 118.959  1.00  0.00    +0.346 HD
ATOM      8  H   UNL     1     135.860 124.070 118.049  1.00  0.00    +0.346 HD
ENDROOT
BRANCH   1   9
ATOM      9  C   UNL     1     133.760 125.058 122.804  1.00  0.00    -0.044 A 
ATOM     10  C   UNL     1     132.254 125.005 125.163  1.00  0.00    +0.123 A 
ATOM     11  C   UNL     1     131.969 124.102 124.149  1.00  0.00    +0.039 A 
ATOM     12  C   UNL     1     133.273 125.936 125.022  1.00  0.00    +0.039 A 
ATOM     13  C   UNL     1     132.718 124.127 122.970  1.00  0.00    +0.007 A 
ATOM     14  C   UNL     1     134.025 125.965 123.845  1.00  0.00    +0.007 A 
ATOM     15  F   UNL     1     131.537 124.975 126.293  1.00  0.00    -0.207 F 
ENDBRANCH   1   9
BRANCH   6  16
ATOM     16  C   UNL     1     136.755 124.077 122.510  1.00  0.00    +0.239 C 
BRANCH  16  17
ATOM     17  O   UNL     1     136.893 122.868 123.244  1.00  0.00    -0.493 OA
BRANCH  17  18
ATOM     18  C   UNL     1     136.015 122.595 124.256  1.00  0.00    +0.123 A 
ATOM     19  C   UNL     1     136.162 123.427 125.385  1.00  0.00    +0.050 A 
ATOM     20  C   UNL     1     135.030 121.606 124.247  1.00  0.00    +0.097 A 
ATOM     21  C   UNL     1     135.331 123.291 126.501  1.00  0.00    +0.054 A 
ATOM     22  C   UNL     1     134.221 121.495 125.361  1.00  0.00    +0.169 A 
ATOM     23  C   UNL     1     134.365 122.312 126.456  1.00  0.00    +0.166 A 
ATOM     24  O   UNL     1     133.209 120.597 125.514  1.00  0.00    -0.453 OA
ATOM     25  O   UNL     1     133.467 122.032 127.436  1.00  0.00    -0.454 OA
ATOM     26  C   UNL     1     132.760 120.919 126.850  1.00  0.00    +0.468 C 
ENDBRANCH  17  18
ENDBRANCH  16  17
ENDBRANCH   6  16
TORSDOF 4
ENDMDL
MODEL 16
REMARK VINA RESULT:    -8.105      1.786      2.691
REMARK INTER + INTRA:         -11.118
REMARK INTER:                 -10.412
REMARK INTRA:                  -0.706
REMARK UNBOUND:                -1.117
REMARK SMILES Fc1ccc([C@@H]2CC[NH2+]C[C@H]2COc2ccc3c(c2)OCO3)cc1
REMARK SMILES IDX 6 1 7 2 8 3 9 4 10 5 11 6 5 9 2 10 3 11 24 12 4 13 23 14
REMARK SMILES IDX 1 15 12 16 13 17 14 18 15 19 19 20 16 21 18 22 17 23 20 24
REMARK SMILES IDX 22 25 21 26
REMARK H PARENT 9 7 9 8
REMARK INDEX MAP 8 1 9 2 10 3 11 4 12 5 13 6 34 7 35 8 5 9 2 10 3 11 7 12 4 13
REMARK INDEX MAP 6 14 1 15 14 16 15 17 16 18 17 19 24 20 18 21 23 22 19 23
REMARK INDEX MAP 22 24 20 25 21 26
ROOT
ATOM      1  C   UNL     1     134.978 125.482 124.295  1.00  0.00    +0.037 C 
ATOM      2  C   UNL     1     135.503 126.636 125.177  1.00  0.00    +0.070 C 
ATOM      3  C   UNL     1     136.709 127.318 124.561  1.00  0.00    +0.261 C 
ATOM      4  N   UNL     1     136.349 127.784 123.192  1.00  0.00    -0.346 N 
ATOM      5  C   UNL     1     135.933 126.684 122.277  1.00  0.00    +0.268 C 
ATOM      6  C   UNL     1     134.706 125.960 122.838  1.00  0.00    +0.089 C 
ATOM      7  H   UNL     1     135.603 128.493 123.253  1.00  0.00    +0.346 HD
ATOM      8  H   UNL     1     137.157 128.276 122.786  1.00  0.00    +0.346 HD
ENDROOT
BRANCH   1   9
ATOM      9  C   UNL     1     133.784 124.844 124.985  1.00  0.00    -0.044 A 
ATOM     10  C   UNL     1     131.616 123.624 126.267  1.00  0.00    +0.123 A 
ATOM     11  C   UNL     1     131.483 124.915 125.779  1.00  0.00    +0.039 A 
ATOM     12  C   UNL     1     132.810 122.930 126.132  1.00  0.00    +0.039 A 
ATOM     13  C   UNL     1     132.564 125.526 125.139  1.00  0.00    +0.007 A 
ATOM     14  C   UNL     1     133.894 123.537 125.494  1.00  0.00    +0.007 A 
ATOM     15  F   UNL     1     130.577 123.039 126.877  1.00  0.00    -0.207 F 
ENDBRANCH   1   9
BRANCH   6  16
ATOM     16  C   UNL     1     134.366 124.801 121.873  1.00  0.00    +0.239 C 
BRANCH  16  17
ATOM     17  O   UNL     1     134.313 125.214 120.515  1.00  0.00    -0.493 OA
BRANCH  17  18
ATOM     18  C   UNL     1     134.452 124.281 119.525  1.00  0.00    +0.123 A 
ATOM     19  C   UNL     1     134.005 124.714 118.259  1.00  0.00    +0.050 A 
ATOM     20  C   UNL     1     134.983 122.998 119.671  1.00  0.00    +0.097 A 
ATOM     21  C   UNL     1     134.093 123.888 117.135  1.00  0.00    +0.054 A 
ATOM     22  C   UNL     1     135.060 122.202 118.544  1.00  0.00    +0.169 A 
ATOM     23  C   UNL     1     134.628 122.632 117.312  1.00  0.00    +0.166 A 
ATOM     24  O   UNL     1     135.558 120.936 118.506  1.00  0.00    -0.453 OA
ATOM     25  O   UNL     1     134.797 121.693 116.346  1.00  0.00    -0.454 OA
ATOM     26  C   UNL     1     135.352 120.606 117.113  1.00  0.00    +0.468 C 
ENDBRANCH  17  18
ENDBRANCH  16  17
ENDBRANCH   6  16
TORSDOF 4
ENDMDL
MODEL 17
REMARK VINA RESULT:    -8.082      5.249      7.276
REMARK INTER + INTRA:         -11.089
REMARK INTER:                 -10.382
REMARK INTRA:                  -0.707
REMARK UNBOUND:                -1.117
REMARK SMILES Fc1ccc([C@@H]2CC[NH2+]C[C@H]2COc2ccc3c(c2)OCO3)cc1
REMARK SMILES IDX 6 1 7 2 8 3 9 4 10 5 11 6 5 9 2 10 3 11 24 12 4 13 23 14
REMARK SMILES IDX 1 15 12 16 13 17 14 18 15 19 19 20 16 21 18 22 17 23 20 24
REMARK SMILES IDX 22 25 21 26
REMARK H PARENT 9 7 9 8
REMARK INDEX MAP 8 1 9 2 10 3 11 4 12 5 13 6 34 7 35 8 5 9 2 10 3 11 7 12 4 13
REMARK INDEX MAP 6 14 1 15 14 16 15 17 16 18 17 19 24 20 18 21 23 22 19 23
REMARK INDEX MAP 22 24 20 25 21 26
ROOT
ATOM      1  C   UNL     1     130.612 127.684 126.161  1.00  0.00    +0.037 C 
ATOM      2  C   UNL     1     129.344 128.356 125.590  1.00  0.00    +0.070 C 
ATOM      3  C   UNL     1     129.384 128.450 124.077  1.00  0.00    +0.261 C 
ATOM      4  N   UNL     1     129.589 127.083 123.518  1.00  0.00    -0.346 N 
ATOM      5  C   UNL     1     130.856 126.439 123.967  1.00  0.00    +0.268 C 
ATOM      6  C   UNL     1     130.873 126.303 125.492  1.00  0.00    +0.089 C 
ATOM      7  H   UNL     1     128.784 126.486 123.760  1.00  0.00    +0.346 HD
ATOM      8  H   UNL     1     129.583 127.141 122.490  1.00  0.00    +0.346 HD
ENDROOT
BRANCH   1   9
ATOM      9  C   UNL     1     130.502 127.642 127.676  1.00  0.00    -0.044 A 
ATOM     10  C   UNL     1     130.261 127.526 130.463  1.00  0.00    +0.123 A 
ATOM     11  C   UNL     1     131.228 128.342 129.893  1.00  0.00    +0.039 A 
ATOM     12  C   UNL     1     129.415 126.764 129.670  1.00  0.00    +0.039 A 
ATOM     13  C   UNL     1     131.350 128.401 128.503  1.00  0.00    +0.007 A 
ATOM     14  C   UNL     1     129.534 126.820 128.279  1.00  0.00    +0.007 A 
ATOM     15  F   UNL     1     130.143 127.475 131.795  1.00  0.00    -0.207 F 
ENDBRANCH   1   9
BRANCH   6  16
ATOM     16  C   UNL     1     132.232 125.683 125.890  1.00  0.00    +0.239 C 
BRANCH  16  17
ATOM     17  O   UNL     1     132.898 125.068 124.795  1.00  0.00    -0.493 OA
BRANCH  17  18
ATOM     18  C   UNL     1     133.944 124.222 125.037  1.00  0.00    +0.123 A 
ATOM     19  C   UNL     1     134.927 124.219 124.025  1.00  0.00    +0.050 A 
ATOM     20  C   UNL     1     134.102 123.408 126.159  1.00  0.00    +0.097 A 
ATOM     21  C   UNL     1     136.071 123.422 124.126  1.00  0.00    +0.054 A 
ATOM     22  C   UNL     1     135.243 122.632 126.235  1.00  0.00    +0.169 A 
ATOM     23  C   UNL     1     136.200 122.638 125.249  1.00  0.00    +0.166 A 
ATOM     24  O   UNL     1     135.559 121.793 127.260  1.00  0.00    -0.453 OA
ATOM     25  O   UNL     1     137.236 121.804 125.526  1.00  0.00    -0.454 OA
ATOM     26  C   UNL     1     136.808 121.242 126.783  1.00  0.00    +0.468 C 
ENDBRANCH  17  18
ENDBRANCH  16  17
ENDBRANCH   6  16
TORSDOF 4
ENDMDL
MODEL 18
REMARK VINA RESULT:    -7.823      4.890      6.163
REMARK INTER + INTRA:         -10.769
REMARK INTER:                 -10.122
REMARK INTRA:                  -0.648
REMARK UNBOUND:                -1.117
REMARK SMILES Fc1ccc([C@@H]2CC[NH2+]C[C@H]2COc2ccc3c(c2)OCO3)cc1
REMARK SMILES IDX 6 1 7 2 8 3 9 4 10 5 11 6 5 9 2 10 3 11 24 12 4 13 23 14
REMARK SMILES IDX 1 15 12 16 13 17 14 18 15 19 19 20 16 21 18 22 17 23 20 24
REMARK SMILES IDX 22 25 21 26
REMARK H PARENT 9 7 9 8
REMARK INDEX MAP 8 1 9 2 10 3 11 4 12 5 13 6 34 7 35 8 5 9 2 10 3 11 7 12 4 13
REMARK INDEX MAP 6 14 1 15 14 16 15 17 16 18 17 19 24 20 18 21 23 22 19 23
REMARK INDEX MAP 22 24 20 25 21 26
ROOT
ATOM      1  C   UNL     1     130.620 127.618 126.050  1.00  0.00    +0.037 C 
ATOM      2  C   UNL     1     129.343 128.279 125.486  1.00  0.00    +0.070 C 
ATOM      3  C   UNL     1     129.358 128.339 123.970  1.00  0.00    +0.261 C 
ATOM      4  N   UNL     1     129.552 126.961 123.439  1.00  0.00    -0.346 N 
ATOM      5  C   UNL     1     130.826 126.324 123.880  1.00  0.00    +0.268 C 
ATOM      6  C   UNL     1     130.868 126.222 125.407  1.00  0.00    +0.089 C 
ATOM      7  H   UNL     1     128.751 126.370 123.707  1.00  0.00    +0.346 HD
ATOM      8  H   UNL     1     129.529 126.995 122.410  1.00  0.00    +0.346 HD
ENDROOT
BRANCH   1   9
ATOM      9  C   UNL     1     130.536 127.609 127.568  1.00  0.00    -0.044 A 
ATOM     10  C   UNL     1     130.341 127.556 130.359  1.00  0.00    +0.123 A 
ATOM     11  C   UNL     1     131.323 128.328 129.757  1.00  0.00    +0.039 A 
ATOM     12  C   UNL     1     129.456 126.807 129.597  1.00  0.00    +0.039 A 
ATOM     13  C   UNL     1     131.422 128.356 128.364  1.00  0.00    +0.007 A 
ATOM     14  C   UNL     1     129.552 126.831 128.203  1.00  0.00    +0.007 A 
ATOM     15  F   UNL     1     130.245 127.535 131.695  1.00  0.00    -0.207 F 
ENDBRANCH   1   9
BRANCH   6  16
ATOM     16  C   UNL     1     132.234 125.609 125.796  1.00  0.00    +0.239 C 
BRANCH  16  17
ATOM     17  O   UNL     1     133.323 126.220 125.117  1.00  0.00    -0.493 OA
BRANCH  17  18
ATOM     18  C   UNL     1     134.002 125.510 124.166  1.00  0.00    +0.123 A 
ATOM     19  C   UNL     1     133.991 124.115 124.371  1.00  0.00    +0.050 A 
ATOM     20  C   UNL     1     134.667 126.043 123.060  1.00  0.00    +0.097 A 
ATOM     21  C   UNL     1     134.624 123.244 123.480  1.00  0.00    +0.054 A 
ATOM     22  C   UNL     1     135.282 125.160 122.194  1.00  0.00    +0.169 A 
ATOM     23  C   UNL     1     135.262 123.801 122.396  1.00  0.00    +0.166 A 
ATOM     24  O   UNL     1     135.961 125.507 121.066  1.00  0.00    -0.453 OA
ATOM     25  O   UNL     1     135.927 123.121 121.426  1.00  0.00    -0.454 OA
ATOM     26  C   UNL     1     136.400 124.208 120.604  1.00  0.00    +0.468 C 
ENDBRANCH  17  18
ENDBRANCH  16  17
ENDBRANCH   6  16
TORSDOF 4
ENDMDL
MODEL 19
REMARK VINA RESULT:    -7.235      3.451      6.377
REMARK INTER + INTRA:         -10.043
REMARK INTER:                  -8.290
REMARK INTRA:                  -1.754
REMARK UNBOUND:                -1.117
REMARK SMILES Fc1ccc([C@@H]2CC[NH2+]C[C@H]2COc2ccc3c(c2)OCO3)cc1
REMARK SMILES IDX 6 1 7 2 8 3 9 4 10 5 11 6 5 9 2 10 3 11 24 12 4 13 23 14
REMARK SMILES IDX 1 15 12 16 13 17 14 18 15 19 19 20 16 21 18 22 17 23 20 24
REMARK SMILES IDX 22 25 21 26
REMARK H PARENT 9 7 9 8
REMARK INDEX MAP 8 1 9 2 10 3 11 4 12 5 13 6 34 7 35 8 5 9 2 10 3 11 7 12 4 13
REMARK INDEX MAP 6 14 1 15 14 16 15 17 16 18 17 19 24 20 18 21 23 22 19 23
REMARK INDEX MAP 22 24 20 25 21 26
ROOT
ATOM      1  C   UNL     1     134.726 124.830 121.503  1.00  0.00    +0.037 C 
ATOM      2  C   UNL     1     134.337 124.444 120.060  1.00  0.00    +0.070 C 
ATOM      3  C   UNL     1     135.543 124.029 119.238  1.00  0.00    +0.261 C 
ATOM      4  N   UNL     1     136.242 122.917 119.942  1.00  0.00    -0.346 N 
ATOM      5  C   UNL     1     136.724 123.281 121.304  1.00  0.00    +0.268 C 
ATOM      6  C   UNL     1     135.548 123.699 122.191  1.00  0.00    +0.089 C 
ATOM      7  H   UNL     1     135.619 122.096 119.996  1.00  0.00    +0.346 HD
ATOM      8  H   UNL     1     137.041 122.612 119.369  1.00  0.00    +0.346 HD
ENDROOT
BRANCH   1   9
ATOM      9  C   UNL     1     133.472 125.245 122.253  1.00  0.00    -0.044 A 
ATOM     10  C   UNL     1     131.182 126.060 123.642  1.00  0.00    +0.123 A 
ATOM     11  C   UNL     1     131.221 124.799 123.067  1.00  0.00    +0.039 A 
ATOM     12  C   UNL     1     132.263 126.925 123.535  1.00  0.00    +0.039 A 
ATOM     13  C   UNL     1     132.361 124.390 122.373  1.00  0.00    +0.007 A 
ATOM     14  C   UNL     1     133.406 126.520 122.842  1.00  0.00    +0.007 A 
ATOM     15  F   UNL     1     130.089 126.448 124.311  1.00  0.00    -0.207 F 
ENDBRANCH   1   9
BRANCH   6  16
ATOM     16  C   UNL     1     136.124 124.118 123.563  1.00  0.00    +0.239 C 
BRANCH  16  17
ATOM     17  O   UNL     1     135.882 123.153 124.578  1.00  0.00    -0.493 OA
BRANCH  17  18
ATOM     18  C   UNL     1     134.647 123.092 125.163  1.00  0.00    +0.123 A 
ATOM     19  C   UNL     1     134.131 121.785 125.281  1.00  0.00    +0.050 A 
ATOM     20  C   UNL     1     133.903 124.176 125.631  1.00  0.00    +0.097 A 
ATOM     21  C   UNL     1     132.887 121.545 125.872  1.00  0.00    +0.054 A 
ATOM     22  C   UNL     1     132.678 123.911 126.213  1.00  0.00    +0.169 A 
ATOM     23  C   UNL     1     132.183 122.635 126.331  1.00  0.00    +0.166 A 
ATOM     24  O   UNL     1     131.833 124.845 126.729  1.00  0.00    -0.453 OA
ATOM     25  O   UNL     1     130.966 122.603 126.933  1.00  0.00    -0.454 OA
ATOM     26  C   UNL     1     130.730 124.009 127.150  1.00  0.00    +0.468 C 
ENDBRANCH  17  18
ENDBRANCH  16  17
ENDBRANCH   6  16
TORSDOF 4
ENDMDL
MODEL 20
REMARK VINA RESULT:    -6.253      4.077      6.514
REMARK INTER + INTRA:          -8.832
REMARK INTER:                  -8.299
REMARK INTRA:                  -0.532
REMARK UNBOUND:                -1.117
REMARK SMILES Fc1ccc([C@@H]2CC[NH2+]C[C@H]2COc2ccc3c(c2)OCO3)cc1
REMARK SMILES IDX 6 1 7 2 8 3 9 4 10 5 11 6 5 9 2 10 3 11 24 12 4 13 23 14
REMARK SMILES IDX 1 15 12 16 13 17 14 18 15 19 19 20 16 21 18 22 17 23 20 24
REMARK SMILES IDX 22 25 21 26
REMARK H PARENT 9 7 9 8
REMARK INDEX MAP 8 1 9 2 10 3 11 4 12 5 13 6 34 7 35 8 5 9 2 10 3 11 7 12 4 13
REMARK INDEX MAP 6 14 1 15 14 16 15 17 16 18 17 19 24 20 18 21 23 22 19 23
REMARK INDEX MAP 22 24 20 25 21 26
ROOT
ATOM      1  C   UNL     1     132.825 125.941 123.340  1.00  0.00    +0.037 C 
ATOM      2  C   UNL     1     133.463 127.065 122.495  1.00  0.00    +0.070 C 
ATOM      3  C   UNL     1     134.520 126.532 121.546  1.00  0.00    +0.261 C 
ATOM      4  N   UNL     1     133.908 125.474 120.694  1.00  0.00    -0.346 N 
ATOM      5  C   UNL     1     133.369 124.320 121.468  1.00  0.00    +0.268 C 
ATOM      6  C   UNL     1     132.284 124.791 122.440  1.00  0.00    +0.089 C 
ATOM      7  H   UNL     1     133.163 125.886 120.112  1.00  0.00    +0.346 HD
ATOM      8  H   UNL     1     134.615 125.134 120.027  1.00  0.00    +0.346 HD
ENDROOT
BRANCH   1   9
ATOM      9  C   UNL     1     131.793 126.555 124.271  1.00  0.00    -0.044 A 
ATOM     10  C   UNL     1     129.928 127.686 126.025  1.00  0.00    +0.123 A 
ATOM     11  C   UNL     1     129.592 127.508 124.692  1.00  0.00    +0.039 A 
ATOM     12  C   UNL     1     131.178 127.315 126.500  1.00  0.00    +0.039 A 
ATOM     13  C   UNL     1     130.521 126.944 123.814  1.00  0.00    +0.007 A 
ATOM     14  C   UNL     1     132.110 126.752 125.627  1.00  0.00    +0.007 A 
ATOM     15  F   UNL     1     129.034 128.223 126.865  1.00  0.00    -0.207 F 
ENDBRANCH   1   9
BRANCH   6  16
ATOM     16  C   UNL     1     131.814 123.559 123.248  1.00  0.00    +0.239 C 
BRANCH  16  17
ATOM     17  O   UNL     1     132.092 123.674 124.636  1.00  0.00    -0.493 OA
BRANCH  17  18
ATOM     18  C   UNL     1     133.165 123.009 125.162  1.00  0.00    +0.123 A 
ATOM     19  C   UNL     1     132.830 122.085 126.173  1.00  0.00    +0.050 A 
ATOM     20  C   UNL     1     134.499 123.168 124.783  1.00  0.00    +0.097 A 
ATOM     21  C   UNL     1     133.808 121.309 126.802  1.00  0.00    +0.054 A 
ATOM     22  C   UNL     1     135.445 122.388 125.419  1.00  0.00    +0.169 A 
ATOM     23  C   UNL     1     135.112 121.485 126.399  1.00  0.00    +0.166 A 
ATOM     24  O   UNL     1     136.782 122.409 125.164  1.00  0.00    -0.453 OA
ATOM     25  O   UNL     1     136.194 120.826 126.887  1.00  0.00    -0.454 OA
ATOM     26  C   UNL     1     137.256 121.440 126.129  1.00  0.00    +0.468 C 
ENDBRANCH  17  18
ENDBRANCH  16  17
ENDBRANCH   6  16
TORSDOF 4
ENDMDL
