MODEL 1
REMARK VINA RESULT:   -10.458      0.000      0.000
REMARK INTER + INTRA:         -14.029
REMARK INTER:                 -12.903
REMARK INTRA:                  -1.125
REMARK UNBOUND:                -1.125
REMARK SMILES Fc1ccc([C@@H]2CC[NH2+]C[C@H]2COc2ccc3c(c2)OCO3)cc1
REMARK SMILES IDX 6 1 7 2 8 3 9 4 10 5 11 6 5 9 2 10 3 11 24 12 4 13 23 14
REMARK SMILES IDX 1 15 12 16 13 17 14 18 15 19 19 20 16 21 18 22 17 23 20 24
REMARK SMILES IDX 22 25 21 26
REMARK H PARENT 9 7 9 8
REMARK INDEX MAP 8 1 9 2 10 3 11 4 12 5 13 6 34 7 35 8 5 9 2 10 3 11 7 12 4 13
REMARK INDEX MAP 6 14 1 15 14 16 15 17 16 18 17 19 24 20 18 21 23 22 19 23
REMARK INDEX MAP 22 24 20 25 21 26
ROOT
ATOM      1  C   UNL     1     136.287 124.972 124.669  1.00  0.00    +0.037 C 
ATOM      2  C   UNL     1     137.264 125.313 125.815  1.00  0.00    +0.070 C 
ATOM      3  C   UNL     1     138.111 126.529 125.497  1.00  0.00    +0.261 C 
ATOM      4  N   UNL     1     137.209 127.671 125.178  1.00  0.00    -0.346 N 
ATOM      5  C   UNL     1     136.318 127.420 124.010  1.00  0.00    +0.268 C 
ATOM      6  C   UNL     1     135.423 126.206 124.274  1.00  0.00    +0.089 C 
ATOM      7  H   UNL     1     136.644 127.909 126.008  1.00  0.00    +0.346 HD
ATOM      8  H   UNL     1     137.782 128.507 124.994  1.00  0.00    +0.346 HD
ENDROOT
BRANCH   1   9
ATOM      9  C   UNL     1     135.489 123.739 125.057  1.00  0.00    -0.044 A 
ATOM     10  C   UNL     1     133.986 121.499 125.803  1.00  0.00    +0.123 A 
ATOM     11  C   UNL     1     135.002 121.361 124.868  1.00  0.00    +0.039 A 
ATOM     12  C   UNL     1     133.702 122.733 126.370  1.00  0.00    +0.039 A 
ATOM     13  C   UNL     1     135.753 122.477 124.494  1.00  0.00    +0.007 A 
ATOM     14  C   UNL     1     134.450 123.853 125.998  1.00  0.00    +0.007 A 
ATOM     15  F   UNL     1     133.270 120.426 126.163  1.00  0.00    -0.207 F 
ENDBRANCH   1   9
BRANCH   6  16
ATOM     16  C   UNL     1     134.571 125.969 123.005  1.00  0.00    +0.239 C 
BRANCH  16  17
ATOM     17  O   UNL     1     135.297 126.199 121.806  1.00  0.00    -0.493 OA
BRANCH  17  18
ATOM     18  C   UNL     1     135.197 125.301 120.779  1.00  0.00    +0.123 A 
ATOM     19  C   UNL     1     135.863 124.081 121.015  1.00  0.00    +0.050 A 
ATOM     20  C   UNL     1     134.511 125.495 119.579  1.00  0.00    +0.097 A 
ATOM     21  C   UNL     1     135.844 123.048 120.074  1.00  0.00    +0.054 A 
ATOM     22  C   UNL     1     134.506 124.458 118.667  1.00  0.00    +0.169 A 
ATOM     23  C   UNL     1     135.152 123.269 118.905  1.00  0.00    +0.166 A 
ATOM     24  O   UNL     1     133.880 124.475 117.458  1.00  0.00    -0.453 OA
ATOM     25  O   UNL     1     135.018 122.390 117.879  1.00  0.00    -0.454 OA
ATOM     26  C   UNL     1     134.242 123.171 116.947  1.00  0.00    +0.468 C 
ENDBRANCH  17  18
ENDBRANCH  16  17
ENDBRANCH   6  16
TORSDOF 4
ENDMDL
MODEL 2
REMARK VINA RESULT:    -9.759      2.417      3.614
REMARK INTER + INTRA:         -13.167
REMARK INTER:                 -12.092
REMARK INTRA:                  -1.074
REMARK UNBOUND:                -1.125
REMARK SMILES Fc1ccc([C@@H]2CC[NH2+]C[C@H]2COc2ccc3c(c2)OCO3)cc1
REMARK SMILES IDX 6 1 7 2 8 3 9 4 10 5 11 6 5 9 2 10 3 11 24 12 4 13 23 14
REMARK SMILES IDX 1 15 12 16 13 17 14 18 15 19 19 20 16 21 18 22 17 23 20 24
REMARK SMILES IDX 22 25 21 26
REMARK H PARENT 9 7 9 8
REMARK INDEX MAP 8 1 9 2 10 3 11 4 12 5 13 6 34 7 35 8 5 9 2 10 3 11 7 12 4 13
REMARK INDEX MAP 6 14 1 15 14 16 15 17 16 18 17 19 24 20 18 21 23 22 19 23
REMARK INDEX MAP 22 24 20 25 21 26
ROOT
ATOM      1  C   UNL     1     132.925 124.029 126.273  1.00  0.00    +0.037 C 
ATOM      2  C   UNL     1     131.570 123.314 126.465  1.00  0.00    +0.070 C 
ATOM      3  C   UNL     1     130.407 124.286 126.447  1.00  0.00    +0.261 C 
ATOM      4  N   UNL     1     130.451 125.061 125.175  1.00  0.00    -0.346 N 
ATOM      5  C   UNL     1     131.704 125.848 124.998  1.00  0.00    +0.268 C 
ATOM      6  C   UNL     1     132.921 124.919 124.995  1.00  0.00    +0.089 C 
ATOM      7  H   UNL     1     130.320 124.423 124.376  1.00  0.00    +0.346 HD
ATOM      8  H   UNL     1     129.643 125.699 125.146  1.00  0.00    +0.346 HD
ENDROOT
BRANCH   1   9
ATOM      9  C   UNL     1     134.035 122.992 126.318  1.00  0.00    -0.044 A 
ATOM     10  C   UNL     1     136.095 121.101 126.452  1.00  0.00    +0.123 A 
ATOM     11  C   UNL     1     135.249 121.115 125.352  1.00  0.00    +0.039 A 
ATOM     12  C   UNL     1     135.931 122.010 127.487  1.00  0.00    +0.039 A 
ATOM     13  C   UNL     1     134.220 122.057 125.284  1.00  0.00    +0.007 A 
ATOM     14  C   UNL     1     134.904 122.954 127.423  1.00  0.00    +0.007 A 
ATOM     15  F   UNL     1     137.083 120.199 126.513  1.00  0.00    -0.207 F 
ENDBRANCH   1   9
BRANCH   6  16
ATOM     16  C   UNL     1     134.183 125.803 124.868  1.00  0.00    +0.239 C 
BRANCH  16  17
ATOM     17  O   UNL     1     135.217 125.180 124.118  1.00  0.00    -0.493 OA
BRANCH  17  18
ATOM     18  C   UNL     1     135.068 125.032 122.766  1.00  0.00    +0.123 A 
ATOM     19  C   UNL     1     134.463 126.135 122.130  1.00  0.00    +0.050 A 
ATOM     20  C   UNL     1     135.458 123.925 122.011  1.00  0.00    +0.097 A 
ATOM     21  C   UNL     1     134.253 126.153 120.748  1.00  0.00    +0.054 A 
ATOM     22  C   UNL     1     135.241 123.968 120.648  1.00  0.00    +0.169 A 
ATOM     23  C   UNL     1     134.657 125.049 120.032  1.00  0.00    +0.166 A 
ATOM     24  O   UNL     1     135.570 122.984 119.766  1.00  0.00    -0.453 OA
ATOM     25  O   UNL     1     134.541 124.882 118.690  1.00  0.00    -0.454 OA
ATOM     26  C   UNL     1     135.087 123.557 118.529  1.00  0.00    +0.468 C 
ENDBRANCH  17  18
ENDBRANCH  16  17
ENDBRANCH   6  16
TORSDOF 4
ENDMDL
MODEL 3
REMARK VINA RESULT:    -9.651      2.353      3.288
REMARK INTER + INTRA:         -13.033
REMARK INTER:                 -11.960
REMARK INTRA:                  -1.073
REMARK UNBOUND:                -1.125
REMARK SMILES Fc1ccc([C@@H]2CC[NH2+]C[C@H]2COc2ccc3c(c2)OCO3)cc1
REMARK SMILES IDX 6 1 7 2 8 3 9 4 10 5 11 6 5 9 2 10 3 11 24 12 4 13 23 14
REMARK SMILES IDX 1 15 12 16 13 17 14 18 15 19 19 20 16 21 18 22 17 23 20 24
REMARK SMILES IDX 22 25 21 26
REMARK H PARENT 9 7 9 8
REMARK INDEX MAP 8 1 9 2 10 3 11 4 12 5 13 6 34 7 35 8 5 9 2 10 3 11 7 12 4 13
REMARK INDEX MAP 6 14 1 15 14 16 15 17 16 18 17 19 24 20 18 21 23 22 19 23
REMARK INDEX MAP 22 24 20 25 21 26
ROOT
ATOM      1  C   UNL     1     132.969 124.103 126.198  1.00  0.00    +0.037 C 
ATOM      2  C   UNL     1     131.597 123.460 126.493  1.00  0.00    +0.070 C 
ATOM      3  C   UNL     1     130.474 124.479 126.470  1.00  0.00    +0.261 C 
ATOM      4  N   UNL     1     130.490 125.178 125.154  1.00  0.00    -0.346 N 
ATOM      5  C   UNL     1     131.764 125.899 124.875  1.00  0.00    +0.268 C 
ATOM      6  C   UNL     1     132.940 124.919 124.872  1.00  0.00    +0.089 C 
ATOM      7  H   UNL     1     130.295 124.501 124.401  1.00  0.00    +0.346 HD
ATOM      8  H   UNL     1     129.708 125.848 125.124  1.00  0.00    +0.346 HD
ENDROOT
BRANCH   1   9
ATOM      9  C   UNL     1     134.037 123.024 126.254  1.00  0.00    -0.044 A 
ATOM     10  C   UNL     1     136.019 121.053 126.407  1.00  0.00    +0.123 A 
ATOM     11  C   UNL     1     135.170 121.086 125.311  1.00  0.00    +0.039 A 
ATOM     12  C   UNL     1     135.897 121.982 127.430  1.00  0.00    +0.039 A 
ATOM     13  C   UNL     1     134.180 122.068 125.232  1.00  0.00    +0.007 A 
ATOM     14  C   UNL     1     134.908 122.966 127.357  1.00  0.00    +0.007 A 
ATOM     15  F   UNL     1     136.970 120.113 126.477  1.00  0.00    -0.207 F 
ENDBRANCH   1   9
BRANCH   6  16
ATOM     16  C   UNL     1     134.230 125.738 124.635  1.00  0.00    +0.239 C 
BRANCH  16  17
ATOM     17  O   UNL     1     134.281 126.322 123.341  1.00  0.00    -0.493 OA
BRANCH  17  18
ATOM     18  C   UNL     1     134.592 125.539 122.264  1.00  0.00    +0.123 A 
ATOM     19  C   UNL     1     135.364 124.403 122.583  1.00  0.00    +0.050 A 
ATOM     20  C   UNL     1     134.214 125.771 120.941  1.00  0.00    +0.097 A 
ATOM     21  C   UNL     1     135.753 123.488 121.600  1.00  0.00    +0.054 A 
ATOM     22  C   UNL     1     134.610 124.851 119.989  1.00  0.00    +0.169 A 
ATOM     23  C   UNL     1     135.357 123.742 120.307  1.00  0.00    +0.166 A 
ATOM     24  O   UNL     1     134.320 124.918 118.661  1.00  0.00    -0.453 OA
ATOM     25  O   UNL     1     135.634 122.974 119.222  1.00  0.00    -0.454 OA
ATOM     26  C   UNL     1     135.007 123.741 118.174  1.00  0.00    +0.468 C 
ENDBRANCH  17  18
ENDBRANCH  16  17
ENDBRANCH   6  16
TORSDOF 4
ENDMDL
MODEL 4
REMARK VINA RESULT:    -9.346      3.729      6.216
REMARK INTER + INTRA:         -12.657
REMARK INTER:                 -11.306
REMARK INTRA:                  -1.350
REMARK UNBOUND:                -1.125
REMARK SMILES Fc1ccc([C@@H]2CC[NH2+]C[C@H]2COc2ccc3c(c2)OCO3)cc1
REMARK SMILES IDX 6 1 7 2 8 3 9 4 10 5 11 6 5 9 2 10 3 11 24 12 4 13 23 14
REMARK SMILES IDX 1 15 12 16 13 17 14 18 15 19 19 20 16 21 18 22 17 23 20 24
REMARK SMILES IDX 22 25 21 26
REMARK H PARENT 9 7 9 8
REMARK INDEX MAP 8 1 9 2 10 3 11 4 12 5 13 6 34 7 35 8 5 9 2 10 3 11 7 12 4 13
REMARK INDEX MAP 6 14 1 15 14 16 15 17 16 18 17 19 24 20 18 21 23 22 19 23
REMARK INDEX MAP 22 24 20 25 21 26
ROOT
ATOM      1  C   UNL     1     135.026 123.284 122.544  1.00  0.00    +0.037 C 
ATOM      2  C   UNL     1     136.415 123.310 121.870  1.00  0.00    +0.070 C 
ATOM      3  C   UNL     1     136.329 123.705 120.408  1.00  0.00    +0.261 C 
ATOM      4  N   UNL     1     135.637 125.021 120.307  1.00  0.00    -0.346 N 
ATOM      5  C   UNL     1     134.252 125.011 120.857  1.00  0.00    +0.268 C 
ATOM      6  C   UNL     1     134.270 124.630 122.340  1.00  0.00    +0.089 C 
ATOM      7  H   UNL     1     136.199 125.745 120.780  1.00  0.00    +0.346 HD
ATOM      8  H   UNL     1     135.608 125.306 119.318  1.00  0.00    +0.346 HD
ENDROOT
BRANCH   1   9
ATOM      9  C   UNL     1     135.195 122.867 123.995  1.00  0.00    -0.044 A 
ATOM     10  C   UNL     1     135.516 122.152 126.683  1.00  0.00    +0.123 A 
ATOM     11  C   UNL     1     135.148 121.187 125.757  1.00  0.00    +0.039 A 
ATOM     12  C   UNL     1     135.724 123.468 126.294  1.00  0.00    +0.039 A 
ATOM     13  C   UNL     1     134.987 121.541 124.416  1.00  0.00    +0.007 A 
ATOM     14  C   UNL     1     135.564 123.828 124.955  1.00  0.00    +0.007 A 
ATOM     15  F   UNL     1     135.675 121.809 127.967  1.00  0.00    -0.207 F 
ENDBRANCH   1   9
BRANCH   6  16
ATOM     16  C   UNL     1     132.804 124.583 122.828  1.00  0.00    +0.239 C 
BRANCH  16  17
ATOM     17  O   UNL     1     132.582 125.383 123.980  1.00  0.00    -0.493 OA
BRANCH  17  18
ATOM     18  C   UNL     1     131.733 124.935 124.954  1.00  0.00    +0.123 A 
ATOM     19  C   UNL     1     132.067 123.666 125.469  1.00  0.00    +0.050 A 
ATOM     20  C   UNL     1     130.619 125.614 125.452  1.00  0.00    +0.097 A 
ATOM     21  C   UNL     1     131.311 123.071 126.483  1.00  0.00    +0.054 A 
ATOM     22  C   UNL     1     129.891 125.005 126.455  1.00  0.00    +0.169 A 
ATOM     23  C   UNL     1     130.225 123.770 126.957  1.00  0.00    +0.166 A 
ATOM     24  O   UNL     1     128.789 125.530 127.058  1.00  0.00    -0.453 OA
ATOM     25  O   UNL     1     129.377 123.361 127.935  1.00  0.00    -0.454 OA
ATOM     26  C   UNL     1     128.446 124.462 127.971  1.00  0.00    +0.468 C 
ENDBRANCH  17  18
ENDBRANCH  16  17
ENDBRANCH   6  16
TORSDOF 4
ENDMDL
MODEL 5
REMARK VINA RESULT:    -9.343      2.629      3.923
REMARK INTER + INTRA:         -12.654
REMARK INTER:                 -11.315
REMARK INTRA:                  -1.338
REMARK UNBOUND:                -1.125
REMARK SMILES Fc1ccc([C@@H]2CC[NH2+]C[C@H]2COc2ccc3c(c2)OCO3)cc1
REMARK SMILES IDX 6 1 7 2 8 3 9 4 10 5 11 6 5 9 2 10 3 11 24 12 4 13 23 14
REMARK SMILES IDX 1 15 12 16 13 17 14 18 15 19 19 20 16 21 18 22 17 23 20 24
REMARK SMILES IDX 22 25 21 26
REMARK H PARENT 9 7 9 8
REMARK INDEX MAP 8 1 9 2 10 3 11 4 12 5 13 6 34 7 35 8 5 9 2 10 3 11 7 12 4 13
REMARK INDEX MAP 6 14 1 15 14 16 15 17 16 18 17 19 24 20 18 21 23 22 19 23
REMARK INDEX MAP 22 24 20 25 21 26
ROOT
ATOM      1  C   UNL     1     134.144 123.151 124.346  1.00  0.00    +0.037 C 
ATOM      2  C   UNL     1     133.675 122.180 125.451  1.00  0.00    +0.070 C 
ATOM      3  C   UNL     1     134.611 120.996 125.602  1.00  0.00    +0.261 C 
ATOM      4  N   UNL     1     135.988 121.505 125.857  1.00  0.00    -0.346 N 
ATOM      5  C   UNL     1     136.518 122.366 124.762  1.00  0.00    +0.268 C 
ATOM      6  C   UNL     1     135.621 123.592 124.567  1.00  0.00    +0.089 C 
ATOM      7  H   UNL     1     136.008 122.018 126.751  1.00  0.00    +0.346 HD
ATOM      8  H   UNL     1     136.619 120.702 125.992  1.00  0.00    +0.346 HD
ENDROOT
BRANCH   1   9
ATOM      9  C   UNL     1     133.150 124.296 124.248  1.00  0.00    -0.044 A 
ATOM     10  C   UNL     1     131.332 126.420 124.118  1.00  0.00    +0.123 A 
ATOM     11  C   UNL     1     131.563 125.647 122.989  1.00  0.00    +0.039 A 
ATOM     12  C   UNL     1     131.993 126.157 125.309  1.00  0.00    +0.039 A 
ATOM     13  C   UNL     1     132.470 124.587 123.052  1.00  0.00    +0.007 A 
ATOM     14  C   UNL     1     132.902 125.098 125.376  1.00  0.00    +0.007 A 
ATOM     15  F   UNL     1     130.458 127.433 124.057  1.00  0.00    -0.207 F 
ENDBRANCH   1   9
BRANCH   6  16
ATOM     16  C   UNL     1     136.194 124.406 123.385  1.00  0.00    +0.239 C 
BRANCH  16  17
ATOM     17  O   UNL     1     136.531 123.593 122.269  1.00  0.00    -0.493 OA
BRANCH  17  18
ATOM     18  C   UNL     1     135.888 123.790 121.078  1.00  0.00    +0.123 A 
ATOM     19  C   UNL     1     135.292 125.061 120.950  1.00  0.00    +0.050 A 
ATOM     20  C   UNL     1     135.792 122.871 120.032  1.00  0.00    +0.097 A 
ATOM     21  C   UNL     1     134.611 125.431 119.786  1.00  0.00    +0.054 A 
ATOM     22  C   UNL     1     135.115 123.261 118.893  1.00  0.00    +0.169 A 
ATOM     23  C   UNL     1     134.541 124.504 118.772  1.00  0.00    +0.166 A 
ATOM     24  O   UNL     1     134.938 122.497 117.781  1.00  0.00    -0.453 OA
ATOM     25  O   UNL     1     133.929 124.678 117.572  1.00  0.00    -0.454 OA
ATOM     26  C   UNL     1     134.150 123.390 116.961  1.00  0.00    +0.468 C 
ENDBRANCH  17  18
ENDBRANCH  16  17
ENDBRANCH   6  16
TORSDOF 4
ENDMDL
MODEL 6
REMARK VINA RESULT:    -9.163      5.329      6.739
REMARK INTER + INTRA:         -12.430
REMARK INTER:                 -11.717
REMARK INTRA:                  -0.713
REMARK UNBOUND:                -1.125
REMARK SMILES Fc1ccc([C@@H]2CC[NH2+]C[C@H]2COc2ccc3c(c2)OCO3)cc1
REMARK SMILES IDX 6 1 7 2 8 3 9 4 10 5 11 6 5 9 2 10 3 11 24 12 4 13 23 14
REMARK SMILES IDX 1 15 12 16 13 17 14 18 15 19 19 20 16 21 18 22 17 23 20 24
REMARK SMILES IDX 22 25 21 26
REMARK H PARENT 9 7 9 8
REMARK INDEX MAP 8 1 9 2 10 3 11 4 12 5 13 6 34 7 35 8 5 9 2 10 3 11 7 12 4 13
REMARK INDEX MAP 6 14 1 15 14 16 15 17 16 18 17 19 24 20 18 21 23 22 19 23
REMARK INDEX MAP 22 24 20 25 21 26
ROOT
ATOM      1  C   UNL     1     129.560 127.285 125.359  1.00  0.00    +0.037 C 
ATOM      2  C   UNL     1     129.124 128.018 126.646  1.00  0.00    +0.070 C 
ATOM      3  C   UNL     1     129.659 127.343 127.894  1.00  0.00    +0.261 C 
ATOM      4  N   UNL     1     131.142 127.245 127.786  1.00  0.00    -0.346 N 
ATOM      5  C   UNL     1     131.604 126.456 126.609  1.00  0.00    +0.268 C 
ATOM      6  C   UNL     1     131.105 127.095 125.310  1.00  0.00    +0.089 C 
ATOM      7  H   UNL     1     131.551 128.191 127.759  1.00  0.00    +0.346 HD
ATOM      8  H   UNL     1     131.510 126.816 128.647  1.00  0.00    +0.346 HD
ENDROOT
BRANCH   1   9
ATOM      9  C   UNL     1     128.974 128.011 124.160  1.00  0.00    -0.044 A 
ATOM     10  C   UNL     1     127.930 129.389 121.958  1.00  0.00    +0.123 A 
ATOM     11  C   UNL     1     127.427 128.137 122.283  1.00  0.00    +0.039 A 
ATOM     12  C   UNL     1     128.946 129.964 122.707  1.00  0.00    +0.039 A 
ATOM     13  C   UNL     1     127.947 127.448 123.381  1.00  0.00    +0.007 A 
ATOM     14  C   UNL     1     129.469 129.279 123.806  1.00  0.00    +0.007 A 
ATOM     15  F   UNL     1     127.428 130.049 120.907  1.00  0.00    -0.207 F 
ENDBRANCH   1   9
BRANCH   6  16
ATOM     16  C   UNL     1     131.569 126.198 124.140  1.00  0.00    +0.239 C 
BRANCH  16  17
ATOM     17  O   UNL     1     132.969 125.955 124.154  1.00  0.00    -0.493 OA
BRANCH  17  18
ATOM     18  C   UNL     1     133.575 125.460 123.033  1.00  0.00    +0.123 A 
ATOM     19  C   UNL     1     133.586 126.354 121.943  1.00  0.00    +0.050 A 
ATOM     20  C   UNL     1     134.158 124.199 122.901  1.00  0.00    +0.097 A 
ATOM     21  C   UNL     1     134.183 126.010 120.726  1.00  0.00    +0.054 A 
ATOM     22  C   UNL     1     134.742 123.885 121.689  1.00  0.00    +0.169 A 
ATOM     23  C   UNL     1     134.756 124.763 120.632  1.00  0.00    +0.166 A 
ATOM     24  O   UNL     1     135.362 122.709 121.395  1.00  0.00    -0.453 OA
ATOM     25  O   UNL     1     135.381 124.252 119.540  1.00  0.00    -0.454 OA
ATOM     26  C   UNL     1     135.732 122.936 120.015  1.00  0.00    +0.468 C 
ENDBRANCH  17  18
ENDBRANCH  16  17
ENDBRANCH   6  16
TORSDOF 4
ENDMDL
MODEL 7
REMARK VINA RESULT:    -9.107      3.662      6.030
REMARK INTER + INTRA:         -12.362
REMARK INTER:                 -11.138
REMARK INTRA:                  -1.223
REMARK UNBOUND:                -1.125
REMARK SMILES Fc1ccc([C@@H]2CC[NH2+]C[C@H]2COc2ccc3c(c2)OCO3)cc1
REMARK SMILES IDX 6 1 7 2 8 3 9 4 10 5 11 6 5 9 2 10 3 11 24 12 4 13 23 14
REMARK SMILES IDX 1 15 12 16 13 17 14 18 15 19 19 20 16 21 18 22 17 23 20 24
REMARK SMILES IDX 22 25 21 26
REMARK H PARENT 9 7 9 8
REMARK INDEX MAP 8 1 9 2 10 3 11 4 12 5 13 6 34 7 35 8 5 9 2 10 3 11 7 12 4 13
REMARK INDEX MAP 6 14 1 15 14 16 15 17 16 18 17 19 24 20 18 21 23 22 19 23
REMARK INDEX MAP 22 24 20 25 21 26
ROOT
ATOM      1  C   UNL     1     135.349 124.427 123.510  1.00  0.00    +0.037 C 
ATOM      2  C   UNL     1     136.483 125.474 123.540  1.00  0.00    +0.070 C 
ATOM      3  C   UNL     1     136.475 126.355 122.306  1.00  0.00    +0.261 C 
ATOM      4  N   UNL     1     135.134 126.992 122.181  1.00  0.00    -0.346 N 
ATOM      5  C   UNL     1     134.018 126.013 122.047  1.00  0.00    +0.268 C 
ATOM      6  C   UNL     1     133.963 125.097 123.273  1.00  0.00    +0.089 C 
ATOM      7  H   UNL     1     134.967 127.609 122.990  1.00  0.00    +0.346 HD
ATOM      8  H   UNL     1     135.137 127.616 121.362  1.00  0.00    +0.346 HD
ENDROOT
BRANCH   1   9
ATOM      9  C   UNL     1     135.434 123.578 124.768  1.00  0.00    -0.044 A 
ATOM     10  C   UNL     1     135.618 121.977 127.056  1.00  0.00    +0.123 A 
ATOM     11  C   UNL     1     135.041 123.235 127.147  1.00  0.00    +0.039 A 
ATOM     12  C   UNL     1     136.108 121.503 125.848  1.00  0.00    +0.039 A 
ATOM     13  C   UNL     1     134.948 124.036 126.006  1.00  0.00    +0.007 A 
ATOM     14  C   UNL     1     136.018 122.301 124.705  1.00  0.00    +0.007 A 
ATOM     15  F   UNL     1     135.701 121.209 128.150  1.00  0.00    -0.207 F 
ENDBRANCH   1   9
BRANCH   6  16
ATOM     16  C   UNL     1     132.826 124.075 123.042  1.00  0.00    +0.239 C 
BRANCH  16  17
ATOM     17  O   UNL     1     131.534 124.646 123.195  1.00  0.00    -0.493 OA
BRANCH  17  18
ATOM     18  C   UNL     1     131.205 125.249 124.378  1.00  0.00    +0.123 A 
ATOM     19  C   UNL     1     131.260 124.392 125.496  1.00  0.00    +0.050 A 
ATOM     20  C   UNL     1     130.842 126.587 124.546  1.00  0.00    +0.097 A 
ATOM     21  C   UNL     1     130.970 124.856 126.782  1.00  0.00    +0.054 A 
ATOM     22  C   UNL     1     130.561 127.020 125.828  1.00  0.00    +0.169 A 
ATOM     23  C   UNL     1     130.623 126.181 126.915  1.00  0.00    +0.166 A 
ATOM     24  O   UNL     1     130.204 128.287 126.170  1.00  0.00    -0.453 OA
ATOM     25  O   UNL     1     130.311 126.812 128.076  1.00  0.00    -0.454 OA
ATOM     26  C   UNL     1     130.009 128.138 127.596  1.00  0.00    +0.468 C 
ENDBRANCH  17  18
ENDBRANCH  16  17
ENDBRANCH   6  16
TORSDOF 4
ENDMDL
MODEL 8
REMARK VINA RESULT:    -9.039      3.922      6.362
REMARK INTER + INTRA:         -12.278
REMARK INTER:                 -11.560
REMARK INTRA:                  -0.718
REMARK UNBOUND:                -1.125
REMARK SMILES Fc1ccc([C@@H]2CC[NH2+]C[C@H]2COc2ccc3c(c2)OCO3)cc1
REMARK SMILES IDX 6 1 7 2 8 3 9 4 10 5 11 6 5 9 2 10 3 11 24 12 4 13 23 14
REMARK SMILES IDX 1 15 12 16 13 17 14 18 15 19 19 20 16 21 18 22 17 23 20 24
REMARK SMILES IDX 22 25 21 26
REMARK H PARENT 9 7 9 8
REMARK INDEX MAP 8 1 9 2 10 3 11 4 12 5 13 6 34 7 35 8 5 9 2 10 3 11 7 12 4 13
REMARK INDEX MAP 6 14 1 15 14 16 15 17 16 18 17 19 24 20 18 21 23 22 19 23
REMARK INDEX MAP 22 24 20 25 21 26
ROOT
ATOM      1  C   UNL     1     134.784 123.288 122.724  1.00  0.00    +0.037 C 
ATOM      2  C   UNL     1     136.164 123.276 122.032  1.00  0.00    +0.070 C 
ATOM      3  C   UNL     1     136.070 123.670 120.570  1.00  0.00    +0.261 C 
ATOM      4  N   UNL     1     135.412 125.004 120.476  1.00  0.00    -0.346 N 
ATOM      5  C   UNL     1     134.034 125.032 121.044  1.00  0.00    +0.268 C 
ATOM      6  C   UNL     1     134.062 124.654 122.527  1.00  0.00    +0.089 C 
ATOM      7  H   UNL     1     135.999 125.713 120.940  1.00  0.00    +0.346 HD
ATOM      8  H   UNL     1     135.377 125.287 119.486  1.00  0.00    +0.346 HD
ENDROOT
BRANCH   1   9
ATOM      9  C   UNL     1     134.961 122.870 124.175  1.00  0.00    -0.044 A 
ATOM     10  C   UNL     1     135.286 122.153 126.861  1.00  0.00    +0.123 A 
ATOM     11  C   UNL     1     135.163 121.162 125.898  1.00  0.00    +0.039 A 
ATOM     12  C   UNL     1     135.246 123.495 126.510  1.00  0.00    +0.039 A 
ATOM     13  C   UNL     1     135.000 121.517 124.557  1.00  0.00    +0.007 A 
ATOM     14  C   UNL     1     135.084 123.855 125.171  1.00  0.00    +0.007 A 
ATOM     15  F   UNL     1     135.446 121.809 128.145  1.00  0.00    -0.207 F 
ENDBRANCH   1   9
BRANCH   6  16
ATOM     16  C   UNL     1     132.601 124.647 123.034  1.00  0.00    +0.239 C 
BRANCH  16  17
ATOM     17  O   UNL     1     131.974 125.916 122.922  1.00  0.00    -0.493 OA
BRANCH  17  18
ATOM     18  C   UNL     1     131.367 126.464 124.018  1.00  0.00    +0.123 A 
ATOM     19  C   UNL     1     130.044 126.893 123.789  1.00  0.00    +0.050 A 
ATOM     20  C   UNL     1     131.935 126.614 125.284  1.00  0.00    +0.097 A 
ATOM     21  C   UNL     1     129.276 127.459 124.811  1.00  0.00    +0.054 A 
ATOM     22  C   UNL     1     131.154 127.174 126.277  1.00  0.00    +0.169 A 
ATOM     23  C   UNL     1     129.863 127.585 126.049  1.00  0.00    +0.166 A 
ATOM     24  O   UNL     1     131.546 127.382 127.564  1.00  0.00    -0.453 OA
ATOM     25  O   UNL     1     129.280 128.105 127.159  1.00  0.00    -0.454 OA
ATOM     26  C   UNL     1     130.361 128.009 128.108  1.00  0.00    +0.468 C 
ENDBRANCH  17  18
ENDBRANCH  16  17
ENDBRANCH   6  16
TORSDOF 4
ENDMDL
MODEL 9
REMARK VINA RESULT:    -9.034      4.651      7.615
REMARK INTER + INTRA:         -12.271
REMARK INTER:                 -11.876
REMARK INTRA:                  -0.396
REMARK UNBOUND:                -1.125
REMARK SMILES Fc1ccc([C@@H]2CC[NH2+]C[C@H]2COc2ccc3c(c2)OCO3)cc1
REMARK SMILES IDX 6 1 7 2 8 3 9 4 10 5 11 6 5 9 2 10 3 11 24 12 4 13 23 14
REMARK SMILES IDX 1 15 12 16 13 17 14 18 15 19 19 20 16 21 18 22 17 23 20 24
REMARK SMILES IDX 22 25 21 26
REMARK H PARENT 9 7 9 8
REMARK INDEX MAP 8 1 9 2 10 3 11 4 12 5 13 6 34 7 35 8 5 9 2 10 3 11 7 12 4 13
REMARK INDEX MAP 6 14 1 15 14 16 15 17 16 18 17 19 24 20 18 21 23 22 19 23
REMARK INDEX MAP 22 24 20 25 21 26
ROOT
ATOM      1  C   UNL     1     135.103 123.577 123.657  1.00  0.00    +0.037 C 
ATOM      2  C   UNL     1     136.258 122.556 123.752  1.00  0.00    +0.070 C 
ATOM      3  C   UNL     1     136.477 122.077 125.173  1.00  0.00    +0.261 C 
ATOM      4  N   UNL     1     135.197 121.518 125.693  1.00  0.00    -0.346 N 
ATOM      5  C   UNL     1     134.080 122.504 125.713  1.00  0.00    +0.268 C 
ATOM      6  C   UNL     1     133.798 123.019 124.299  1.00  0.00    +0.089 C 
ATOM      7  H   UNL     1     134.929 120.692 125.137  1.00  0.00    +0.346 HD
ATOM      8  H   UNL     1     135.353 121.162 126.647  1.00  0.00    +0.346 HD
ENDROOT
BRANCH   1   9
ATOM      9  C   UNL     1     134.957 124.017 122.210  1.00  0.00    -0.044 A 
ATOM     10  C   UNL     1     134.668 124.877 119.562  1.00  0.00    +0.123 A 
ATOM     11  C   UNL     1     135.262 123.651 119.822  1.00  0.00    +0.039 A 
ATOM     12  C   UNL     1     134.219 125.684 120.597  1.00  0.00    +0.039 A 
ATOM     13  C   UNL     1     135.408 123.220 121.142  1.00  0.00    +0.007 A 
ATOM     14  C   UNL     1     134.362 125.258 121.919  1.00  0.00    +0.007 A 
ATOM     15  F   UNL     1     134.526 125.285 118.294  1.00  0.00    -0.207 F 
ENDBRANCH   1   9
BRANCH   6  16
ATOM     16  C   UNL     1     132.673 124.075 124.402  1.00  0.00    +0.239 C 
BRANCH  16  17
ATOM     17  O   UNL     1     132.686 124.772 125.640  1.00  0.00    -0.493 OA
BRANCH  17  18
ATOM     18  C   UNL     1     131.533 124.868 126.367  1.00  0.00    +0.123 A 
ATOM     19  C   UNL     1     131.180 126.187 126.717  1.00  0.00    +0.050 A 
ATOM     20  C   UNL     1     130.718 123.805 126.762  1.00  0.00    +0.097 A 
ATOM     21  C   UNL     1     130.019 126.461 127.446  1.00  0.00    +0.054 A 
ATOM     22  C   UNL     1     129.576 124.103 127.480  1.00  0.00    +0.169 A 
ATOM     23  C   UNL     1     129.235 125.392 127.812  1.00  0.00    +0.166 A 
ATOM     24  O   UNL     1     128.670 123.194 127.932  1.00  0.00    -0.453 OA
ATOM     25  O   UNL     1     128.075 125.457 128.516  1.00  0.00    -0.454 OA
ATOM     26  C   UNL     1     127.739 124.059 128.622  1.00  0.00    +0.468 C 
ENDBRANCH  17  18
ENDBRANCH  16  17
ENDBRANCH   6  16
TORSDOF 4
ENDMDL
MODEL 10
REMARK VINA RESULT:    -8.978      3.382      4.775
REMARK INTER + INTRA:         -12.203
REMARK INTER:                 -11.120
REMARK INTRA:                  -1.083
REMARK UNBOUND:                -1.125
REMARK SMILES Fc1ccc([C@@H]2CC[NH2+]C[C@H]2COc2ccc3c(c2)OCO3)cc1
REMARK SMILES IDX 6 1 7 2 8 3 9 4 10 5 11 6 5 9 2 10 3 11 24 12 4 13 23 14
REMARK SMILES IDX 1 15 12 16 13 17 14 18 15 19 19 20 16 21 18 22 17 23 20 24
REMARK SMILES IDX 22 25 21 26
REMARK H PARENT 9 7 9 8
REMARK INDEX MAP 8 1 9 2 10 3 11 4 12 5 13 6 34 7 35 8 5 9 2 10 3 11 7 12 4 13
REMARK INDEX MAP 6 14 1 15 14 16 15 17 16 18 17 19 24 20 18 21 23 22 19 23
REMARK INDEX MAP 22 24 20 25 21 26
ROOT
ATOM      1  C   UNL     1     132.551 124.222 125.368  1.00  0.00    +0.037 C 
ATOM      2  C   UNL     1     131.905 123.132 126.250  1.00  0.00    +0.070 C 
ATOM      3  C   UNL     1     132.694 121.838 126.224  1.00  0.00    +0.261 C 
ATOM      4  N   UNL     1     134.098 122.125 126.634  1.00  0.00    -0.346 N 
ATOM      5  C   UNL     1     134.793 123.099 125.745  1.00  0.00    +0.268 C 
ATOM      6  C   UNL     1     134.049 124.438 125.738  1.00  0.00    +0.089 C 
ATOM      7  H   UNL     1     134.112 122.464 127.608  1.00  0.00    +0.346 HD
ATOM      8  H   UNL     1     134.627 121.242 126.648  1.00  0.00    +0.346 HD
ENDROOT
BRANCH   1   9
ATOM      9  C   UNL     1     131.697 125.477 125.436  1.00  0.00    -0.044 A 
ATOM     10  C   UNL     1     130.118 127.787 125.507  1.00  0.00    +0.123 A 
ATOM     11  C   UNL     1     130.518 127.196 126.696  1.00  0.00    +0.039 A 
ATOM     12  C   UNL     1     130.487 127.247 124.284  1.00  0.00    +0.039 A 
ATOM     13  C   UNL     1     131.306 126.043 126.663  1.00  0.00    +0.007 A 
ATOM     14  C   UNL     1     131.274 126.094 124.246  1.00  0.00    +0.007 A 
ATOM     15  F   UNL     1     129.367 128.896 125.542  1.00  0.00    -0.207 F 
ENDBRANCH   1   9
BRANCH   6  16
ATOM     16  C   UNL     1     134.787 125.376 124.756  1.00  0.00    +0.239 C 
BRANCH  16  17
ATOM     17  O   UNL     1     135.604 124.672 123.831  1.00  0.00    -0.493 OA
BRANCH  17  18
ATOM     18  C   UNL     1     135.290 124.702 122.501  1.00  0.00    +0.123 A 
ATOM     19  C   UNL     1     134.558 125.842 122.108  1.00  0.00    +0.050 A 
ATOM     20  C   UNL     1     135.631 123.736 121.552  1.00  0.00    +0.097 A 
ATOM     21  C   UNL     1     134.173 126.036 120.779  1.00  0.00    +0.054 A 
ATOM     22  C   UNL     1     135.239 123.953 120.245  1.00  0.00    +0.169 A 
ATOM     23  C   UNL     1     134.532 125.069 119.868  1.00  0.00    +0.166 A 
ATOM     24  O   UNL     1     135.497 123.123 119.198  1.00  0.00    -0.453 OA
ATOM     25  O   UNL     1     134.252 125.081 118.539  1.00  0.00    -0.454 OA
ATOM     26  C   UNL     1     134.833 123.828 118.124  1.00  0.00    +0.468 C 
ENDBRANCH  17  18
ENDBRANCH  16  17
ENDBRANCH   6  16
TORSDOF 4
ENDMDL
MODEL 11
REMARK VINA RESULT:    -8.907      5.721      7.876
REMARK INTER + INTRA:         -12.115
REMARK INTER:                 -11.473
REMARK INTRA:                  -0.643
REMARK UNBOUND:                -1.125
REMARK SMILES Fc1ccc([C@@H]2CC[NH2+]C[C@H]2COc2ccc3c(c2)OCO3)cc1
REMARK SMILES IDX 6 1 7 2 8 3 9 4 10 5 11 6 5 9 2 10 3 11 24 12 4 13 23 14
REMARK SMILES IDX 1 15 12 16 13 17 14 18 15 19 19 20 16 21 18 22 17 23 20 24
REMARK SMILES IDX 22 25 21 26
REMARK H PARENT 9 7 9 8
REMARK INDEX MAP 8 1 9 2 10 3 11 4 12 5 13 6 34 7 35 8 5 9 2 10 3 11 7 12 4 13
REMARK INDEX MAP 6 14 1 15 14 16 15 17 16 18 17 19 24 20 18 21 23 22 19 23
REMARK INDEX MAP 22 24 20 25 21 26
ROOT
ATOM      1  C   UNL     1     129.087 126.939 125.523  1.00  0.00    +0.037 C 
ATOM      2  C   UNL     1     128.275 127.460 126.729  1.00  0.00    +0.070 C 
ATOM      3  C   UNL     1     128.557 126.665 127.989  1.00  0.00    +0.261 C 
ATOM      4  N   UNL     1     130.023 126.691 128.253  1.00  0.00    -0.346 N 
ATOM      5  C   UNL     1     130.839 126.102 127.153  1.00  0.00    +0.268 C 
ATOM      6  C   UNL     1     130.608 126.871 125.849  1.00  0.00    +0.089 C 
ATOM      7  H   UNL     1     130.325 127.660 128.436  1.00  0.00    +0.346 HD
ATOM      8  H   UNL     1     130.213 126.180 129.127  1.00  0.00    +0.346 HD
ENDROOT
BRANCH   1   9
ATOM      9  C   UNL     1     128.739 127.773 124.302  1.00  0.00    -0.044 A 
ATOM     10  C   UNL     1     128.135 129.348 122.067  1.00  0.00    +0.123 A 
ATOM     11  C   UNL     1     127.510 128.120 122.228  1.00  0.00    +0.039 A 
ATOM     12  C   UNL     1     129.059 129.804 122.997  1.00  0.00    +0.039 A 
ATOM     13  C   UNL     1     127.810 127.332 123.342  1.00  0.00    +0.007 A 
ATOM     14  C   UNL     1     129.362 129.020 124.112  1.00  0.00    +0.007 A 
ATOM     15  F   UNL     1     127.843 130.102 121.001  1.00  0.00    -0.207 F 
ENDBRANCH   1   9
BRANCH   6  16
ATOM     16  C   UNL     1     131.435 126.174 124.744  1.00  0.00    +0.239 C 
BRANCH  16  17
ATOM     17  O   UNL     1     131.176 124.779 124.661  1.00  0.00    -0.493 OA
BRANCH  17  18
ATOM     18  C   UNL     1     132.187 123.894 124.917  1.00  0.00    +0.123 A 
ATOM     19  C   UNL     1     131.809 122.812 125.739  1.00  0.00    +0.050 A 
ATOM     20  C   UNL     1     133.496 123.979 124.441  1.00  0.00    +0.097 A 
ATOM     21  C   UNL     1     132.719 121.807 126.081  1.00  0.00    +0.054 A 
ATOM     22  C   UNL     1     134.374 122.972 124.793  1.00  0.00    +0.169 A 
ATOM     23  C   UNL     1     133.999 121.917 125.589  1.00  0.00    +0.166 A 
ATOM     24  O   UNL     1     135.678 122.894 124.409  1.00  0.00    -0.453 OA
ATOM     25  O   UNL     1     135.016 121.044 125.809  1.00  0.00    -0.454 OA
ATOM     26  C   UNL     1     136.089 121.686 125.090  1.00  0.00    +0.468 C 
ENDBRANCH  17  18
ENDBRANCH  16  17
ENDBRANCH   6  16
TORSDOF 4
ENDMDL
MODEL 12
REMARK VINA RESULT:    -8.891      2.507      3.709
REMARK INTER + INTRA:         -12.095
REMARK INTER:                 -11.739
REMARK INTRA:                  -0.357
REMARK UNBOUND:                -1.125
REMARK SMILES Fc1ccc([C@@H]2CC[NH2+]C[C@H]2COc2ccc3c(c2)OCO3)cc1
REMARK SMILES IDX 6 1 7 2 8 3 9 4 10 5 11 6 5 9 2 10 3 11 24 12 4 13 23 14
REMARK SMILES IDX 1 15 12 16 13 17 14 18 15 19 19 20 16 21 18 22 17 23 20 24
REMARK SMILES IDX 22 25 21 26
REMARK H PARENT 9 7 9 8
REMARK INDEX MAP 8 1 9 2 10 3 11 4 12 5 13 6 34 7 35 8 5 9 2 10 3 11 7 12 4 13
REMARK INDEX MAP 6 14 1 15 14 16 15 17 16 18 17 19 24 20 18 21 23 22 19 23
REMARK INDEX MAP 22 24 20 25 21 26
ROOT
ATOM      1  C   UNL     1     133.925 122.735 125.474  1.00  0.00    +0.037 C 
ATOM      2  C   UNL     1     134.473 121.932 126.674  1.00  0.00    +0.070 C 
ATOM      3  C   UNL     1     135.582 120.983 126.264  1.00  0.00    +0.261 C 
ATOM      4  N   UNL     1     136.653 121.764 125.581  1.00  0.00    -0.346 N 
ATOM      5  C   UNL     1     136.186 122.474 124.357  1.00  0.00    +0.268 C 
ATOM      6  C   UNL     1     135.069 123.461 124.707  1.00  0.00    +0.089 C 
ATOM      7  H   UNL     1     137.065 122.438 126.244  1.00  0.00    +0.346 HD
ATOM      8  H   UNL     1     137.421 121.126 125.331  1.00  0.00    +0.346 HD
ENDROOT
BRANCH   1   9
ATOM      9  C   UNL     1     132.813 123.647 125.963  1.00  0.00    -0.044 A 
ATOM     10  C   UNL     1     130.736 125.284 126.881  1.00  0.00    +0.123 A 
ATOM     11  C   UNL     1     131.881 125.863 126.355  1.00  0.00    +0.039 A 
ATOM     12  C   UNL     1     130.608 123.905 126.962  1.00  0.00    +0.039 A 
ATOM     13  C   UNL     1     132.919 125.048 125.897  1.00  0.00    +0.007 A 
ATOM     14  C   UNL     1     131.643 123.086 126.505  1.00  0.00    +0.007 A 
ATOM     15  F   UNL     1     129.741 126.067 127.316  1.00  0.00    -0.207 F 
ENDBRANCH   1   9
BRANCH   6  16
ATOM     16  C   UNL     1     134.595 124.116 123.389  1.00  0.00    +0.239 C 
BRANCH  16  17
ATOM     17  O   UNL     1     135.623 124.190 122.411  1.00  0.00    -0.493 OA
BRANCH  17  18
ATOM     18  C   UNL     1     135.298 124.081 121.087  1.00  0.00    +0.123 A 
ATOM     19  C   UNL     1     134.729 125.248 120.536  1.00  0.00    +0.050 A 
ATOM     20  C   UNL     1     135.485 122.955 120.283  1.00  0.00    +0.097 A 
ATOM     21  C   UNL     1     134.357 125.310 119.190  1.00  0.00    +0.054 A 
ATOM     22  C   UNL     1     135.110 123.043 118.956  1.00  0.00    +0.169 A 
ATOM     23  C   UNL     1     134.563 124.185 118.424  1.00  0.00    +0.166 A 
ATOM     24  O   UNL     1     135.233 122.049 118.035  1.00  0.00    -0.453 OA
ATOM     25  O   UNL     1     134.269 124.054 117.104  1.00  0.00    -0.454 OA
ATOM     26  C   UNL     1     134.661 122.686 116.870  1.00  0.00    +0.468 C 
ENDBRANCH  17  18
ENDBRANCH  16  17
ENDBRANCH   6  16
TORSDOF 4
ENDMDL
MODEL 13
REMARK VINA RESULT:    -8.828      4.310      6.971
REMARK INTER + INTRA:         -12.018
REMARK INTER:                 -11.049
REMARK INTRA:                  -0.969
REMARK UNBOUND:                -1.125
REMARK SMILES Fc1ccc([C@@H]2CC[NH2+]C[C@H]2COc2ccc3c(c2)OCO3)cc1
REMARK SMILES IDX 6 1 7 2 8 3 9 4 10 5 11 6 5 9 2 10 3 11 24 12 4 13 23 14
REMARK SMILES IDX 1 15 12 16 13 17 14 18 15 19 19 20 16 21 18 22 17 23 20 24
REMARK SMILES IDX 22 25 21 26
REMARK H PARENT 9 7 9 8
REMARK INDEX MAP 8 1 9 2 10 3 11 4 12 5 13 6 34 7 35 8 5 9 2 10 3 11 7 12 4 13
REMARK INDEX MAP 6 14 1 15 14 16 15 17 16 18 17 19 24 20 18 21 23 22 19 23
REMARK INDEX MAP 22 24 20 25 21 26
ROOT
ATOM      1  C   UNL     1     135.209 123.314 124.184  1.00  0.00    +0.037 C 
ATOM      2  C   UNL     1     136.465 122.421 124.274  1.00  0.00    +0.070 C 
ATOM      3  C   UNL     1     136.639 121.820 125.655  1.00  0.00    +0.261 C 
ATOM      4  N   UNL     1     135.399 121.073 126.011  1.00  0.00    -0.346 N 
ATOM      5  C   UNL     1     134.175 121.923 126.035  1.00  0.00    +0.268 C 
ATOM      6  C   UNL     1     133.936 122.552 124.660  1.00  0.00    +0.089 C 
ATOM      7  H   UNL     1     135.269 120.286 125.357  1.00  0.00    +0.346 HD
ATOM      8  H   UNL     1     135.528 120.637 126.935  1.00  0.00    +0.346 HD
ENDROOT
BRANCH   1   9
ATOM      9  C   UNL     1     135.115 123.887 122.780  1.00  0.00    -0.044 A 
ATOM     10  C   UNL     1     134.952 124.892 120.173  1.00  0.00    +0.123 A 
ATOM     11  C   UNL     1     134.700 125.733 121.247  1.00  0.00    +0.039 A 
ATOM     12  C   UNL     1     135.280 123.559 120.373  1.00  0.00    +0.039 A 
ATOM     13  C   UNL     1     134.781 125.233 122.549  1.00  0.00    +0.007 A 
ATOM     14  C   UNL     1     135.361 123.055 121.673  1.00  0.00    +0.007 A 
ATOM     15  F   UNL     1     134.879 125.375 118.926  1.00  0.00    -0.207 F 
ENDBRANCH   1   9
BRANCH   6  16
ATOM     16  C   UNL     1     132.692 123.462 124.773  1.00  0.00    +0.239 C 
BRANCH  16  17
ATOM     17  O   UNL     1     132.952 124.663 125.485  1.00  0.00    -0.493 OA
BRANCH  17  18
ATOM     18  C   UNL     1     132.012 125.657 125.490  1.00  0.00    +0.123 A 
ATOM     19  C   UNL     1     131.618 126.082 124.205  1.00  0.00    +0.050 A 
ATOM     20  C   UNL     1     131.441 126.245 126.620  1.00  0.00    +0.097 A 
ATOM     21  C   UNL     1     130.653 127.078 124.032  1.00  0.00    +0.054 A 
ATOM     22  C   UNL     1     130.488 127.225 126.422  1.00  0.00    +0.169 A 
ATOM     23  C   UNL     1     130.104 127.631 125.167  1.00  0.00    +0.166 A 
ATOM     24  O   UNL     1     129.826 127.891 127.407  1.00  0.00    -0.453 OA
ATOM     25  O   UNL     1     129.156 128.603 125.202  1.00  0.00    -0.454 OA
ATOM     26  C   UNL     1     129.009 128.792 126.625  1.00  0.00    +0.468 C 
ENDBRANCH  17  18
ENDBRANCH  16  17
ENDBRANCH   6  16
TORSDOF 4
ENDMDL
MODEL 14
REMARK VINA RESULT:    -8.805      5.609      7.754
REMARK INTER + INTRA:         -11.990
REMARK INTER:                 -11.270
REMARK INTRA:                  -0.719
REMARK UNBOUND:                -1.125
REMARK SMILES Fc1ccc([C@@H]2CC[NH2+]C[C@H]2COc2ccc3c(c2)OCO3)cc1
REMARK SMILES IDX 6 1 7 2 8 3 9 4 10 5 11 6 5 9 2 10 3 11 24 12 4 13 23 14
REMARK SMILES IDX 1 15 12 16 13 17 14 18 15 19 19 20 16 21 18 22 17 23 20 24
REMARK SMILES IDX 22 25 21 26
REMARK H PARENT 9 7 9 8
REMARK INDEX MAP 8 1 9 2 10 3 11 4 12 5 13 6 34 7 35 8 5 9 2 10 3 11 7 12 4 13
REMARK INDEX MAP 6 14 1 15 14 16 15 17 16 18 17 19 24 20 18 21 23 22 19 23
REMARK INDEX MAP 22 24 20 25 21 26
ROOT
ATOM      1  C   UNL     1     129.042 126.741 125.534  1.00  0.00    +0.037 C 
ATOM      2  C   UNL     1     128.196 127.200 126.742  1.00  0.00    +0.070 C 
ATOM      3  C   UNL     1     128.403 126.310 127.952  1.00  0.00    +0.261 C 
ATOM      4  N   UNL     1     129.857 126.271 128.274  1.00  0.00    -0.346 N 
ATOM      5  C   UNL     1     130.701 125.737 127.168  1.00  0.00    +0.268 C 
ATOM      6  C   UNL     1     130.546 126.603 125.915  1.00  0.00    +0.089 C 
ATOM      7  H   UNL     1     130.178 127.215 128.539  1.00  0.00    +0.346 HD
ATOM      8  H   UNL     1     129.995 125.694 129.116  1.00  0.00    +0.346 HD
ENDROOT
BRANCH   1   9
ATOM      9  C   UNL     1     128.769 127.671 124.364  1.00  0.00    -0.044 A 
ATOM     10  C   UNL     1     128.227 129.348 122.190  1.00  0.00    +0.123 A 
ATOM     11  C   UNL     1     129.150 129.745 123.146  1.00  0.00    +0.039 A 
ATOM     12  C   UNL     1     127.566 128.133 122.299  1.00  0.00    +0.039 A 
ATOM     13  C   UNL     1     129.422 128.910 124.232  1.00  0.00    +0.007 A 
ATOM     14  C   UNL     1     127.834 127.295 123.383  1.00  0.00    +0.007 A 
ATOM     15  F   UNL     1     127.971 130.149 121.147  1.00  0.00    -0.207 F 
ENDBRANCH   1   9
BRANCH   6  16
ATOM     16  C   UNL     1     131.399 125.961 124.796  1.00  0.00    +0.239 C 
BRANCH  16  17
ATOM     17  O   UNL     1     132.765 126.347 124.856  1.00  0.00    -0.493 OA
BRANCH  17  18
ATOM     18  C   UNL     1     133.734 125.382 124.862  1.00  0.00    +0.123 A 
ATOM     19  C   UNL     1     134.851 125.685 124.056  1.00  0.00    +0.050 A 
ATOM     20  C   UNL     1     133.699 124.184 125.577  1.00  0.00    +0.097 A 
ATOM     21  C   UNL     1     135.939 124.812 123.965  1.00  0.00    +0.054 A 
ATOM     22  C   UNL     1     134.788 123.340 125.470  1.00  0.00    +0.169 A 
ATOM     23  C   UNL     1     135.876 123.643 124.689  1.00  0.00    +0.166 A 
ATOM     24  O   UNL     1     134.922 122.144 126.105  1.00  0.00    -0.453 OA
ATOM     25  O   UNL     1     136.830 122.678 124.730  1.00  0.00    -0.454 OA
ATOM     26  C   UNL     1     136.206 121.711 125.600  1.00  0.00    +0.468 C 
ENDBRANCH  17  18
ENDBRANCH  16  17
ENDBRANCH   6  16
TORSDOF 4
ENDMDL
MODEL 15
REMARK VINA RESULT:    -8.756      4.269      7.031
REMARK INTER + INTRA:         -11.929
REMARK INTER:                 -11.365
REMARK INTRA:                  -0.564
REMARK UNBOUND:                -1.125
REMARK SMILES Fc1ccc([C@@H]2CC[NH2+]C[C@H]2COc2ccc3c(c2)OCO3)cc1
REMARK SMILES IDX 6 1 7 2 8 3 9 4 10 5 11 6 5 9 2 10 3 11 24 12 4 13 23 14
REMARK SMILES IDX 1 15 12 16 13 17 14 18 15 19 19 20 16 21 18 22 17 23 20 24
REMARK SMILES IDX 22 25 21 26
REMARK H PARENT 9 7 9 8
REMARK INDEX MAP 8 1 9 2 10 3 11 4 12 5 13 6 34 7 35 8 5 9 2 10 3 11 7 12 4 13
REMARK INDEX MAP 6 14 1 15 14 16 15 17 16 18 17 19 24 20 18 21 23 22 19 23
REMARK INDEX MAP 22 24 20 25 21 26
ROOT
ATOM      1  C   UNL     1     135.001 124.965 123.310  1.00  0.00    +0.037 C 
ATOM      2  C   UNL     1     136.460 125.070 123.803  1.00  0.00    +0.070 C 
ATOM      3  C   UNL     1     136.539 125.417 125.277  1.00  0.00    +0.261 C 
ATOM      4  N   UNL     1     135.763 124.405 126.049  1.00  0.00    -0.346 N 
ATOM      5  C   UNL     1     134.322 124.344 125.673  1.00  0.00    +0.268 C 
ATOM      6  C   UNL     1     134.173 123.984 124.192  1.00  0.00    +0.089 C 
ATOM      7  H   UNL     1     136.197 123.476 125.936  1.00  0.00    +0.346 HD
ATOM      8  H   UNL     1     135.843 124.620 127.053  1.00  0.00    +0.346 HD
ENDROOT
BRANCH   1   9
ATOM      9  C   UNL     1     135.008 124.631 121.828  1.00  0.00    -0.044 A 
ATOM     10  C   UNL     1     134.996 124.064 119.087  1.00  0.00    +0.123 A 
ATOM     11  C   UNL     1     135.603 123.179 119.966  1.00  0.00    +0.039 A 
ATOM     12  C   UNL     1     134.398 125.228 119.548  1.00  0.00    +0.039 A 
ATOM     13  C   UNL     1     135.610 123.460 121.334  1.00  0.00    +0.007 A 
ATOM     14  C   UNL     1     134.403 125.514 120.915  1.00  0.00    +0.007 A 
ATOM     15  F   UNL     1     134.987 123.790 117.776  1.00  0.00    -0.207 F 
ENDBRANCH   1   9
BRANCH   6  16
ATOM     16  C   UNL     1     132.663 123.995 123.859  1.00  0.00    +0.239 C 
BRANCH  16  17
ATOM     17  O   UNL     1     131.851 123.669 124.978  1.00  0.00    -0.493 OA
BRANCH  17  18
ATOM     18  C   UNL     1     131.130 124.656 125.592  1.00  0.00    +0.123 A 
ATOM     19  C   UNL     1     130.476 124.241 126.771  1.00  0.00    +0.050 A 
ATOM     20  C   UNL     1     131.008 125.978 125.160  1.00  0.00    +0.097 A 
ATOM     21  C   UNL     1     129.711 125.132 127.530  1.00  0.00    +0.054 A 
ATOM     22  C   UNL     1     130.249 126.838 125.930  1.00  0.00    +0.169 A 
ATOM     23  C   UNL     1     129.619 126.429 127.080  1.00  0.00    +0.166 A 
ATOM     24  O   UNL     1     130.036 128.155 125.661  1.00  0.00    -0.453 OA
ATOM     25  O   UNL     1     128.928 127.434 127.679  1.00  0.00    -0.454 OA
ATOM     26  C   UNL     1     129.164 128.517 126.757  1.00  0.00    +0.468 C 
ENDBRANCH  17  18
ENDBRANCH  16  17
ENDBRANCH   6  16
TORSDOF 4
ENDMDL
MODEL 16
REMARK VINA RESULT:    -8.668      4.513      7.210
REMARK INTER + INTRA:         -11.820
REMARK INTER:                 -11.360
REMARK INTRA:                  -0.461
REMARK UNBOUND:                -1.125
REMARK SMILES Fc1ccc([C@@H]2CC[NH2+]C[C@H]2COc2ccc3c(c2)OCO3)cc1
REMARK SMILES IDX 6 1 7 2 8 3 9 4 10 5 11 6 5 9 2 10 3 11 24 12 4 13 23 14
REMARK SMILES IDX 1 15 12 16 13 17 14 18 15 19 19 20 16 21 18 22 17 23 20 24
REMARK SMILES IDX 22 25 21 26
REMARK H PARENT 9 7 9 8
REMARK INDEX MAP 8 1 9 2 10 3 11 4 12 5 13 6 34 7 35 8 5 9 2 10 3 11 7 12 4 13
REMARK INDEX MAP 6 14 1 15 14 16 15 17 16 18 17 19 24 20 18 21 23 22 19 23
REMARK INDEX MAP 22 24 20 25 21 26
ROOT
ATOM      1  C   UNL     1     134.149 123.458 123.365  1.00  0.00    +0.037 C 
ATOM      2  C   UNL     1     135.329 123.580 122.377  1.00  0.00    +0.070 C 
ATOM      3  C   UNL     1     134.886 124.109 121.026  1.00  0.00    +0.261 C 
ATOM      4  N   UNL     1     134.190 125.411 121.227  1.00  0.00    -0.346 N 
ATOM      5  C   UNL     1     132.983 125.317 122.095  1.00  0.00    +0.268 C 
ATOM      6  C   UNL     1     133.366 124.799 123.485  1.00  0.00    +0.089 C 
ATOM      7  H   UNL     1     134.852 126.101 121.615  1.00  0.00    +0.346 HD
ATOM      8  H   UNL     1     133.918 125.787 120.307  1.00  0.00    +0.346 HD
ENDROOT
BRANCH   1   9
ATOM      9  C   UNL     1     134.670 122.910 124.683  1.00  0.00    -0.044 A 
ATOM     10  C   UNL     1     135.638 121.853 127.088  1.00  0.00    +0.123 A 
ATOM     11  C   UNL     1     135.325 123.202 127.011  1.00  0.00    +0.039 A 
ATOM     12  C   UNL     1     135.481 121.022 125.988  1.00  0.00    +0.039 A 
ATOM     13  C   UNL     1     134.842 123.732 125.812  1.00  0.00    +0.007 A 
ATOM     14  C   UNL     1     135.000 121.547 124.787  1.00  0.00    +0.007 A 
ATOM     15  F   UNL     1     136.096 121.347 128.240  1.00  0.00    -0.207 F 
ENDBRANCH   1   9
BRANCH   6  16
ATOM     16  C   UNL     1     132.065 124.671 124.310  1.00  0.00    +0.239 C 
BRANCH  16  17
ATOM     17  O   UNL     1     132.138 125.345 125.558  1.00  0.00    -0.493 OA
BRANCH  17  18
ATOM     18  C   UNL     1     131.072 125.289 126.414  1.00  0.00    +0.123 A 
ATOM     19  C   UNL     1     130.770 126.516 127.039  1.00  0.00    +0.050 A 
ATOM     20  C   UNL     1     130.299 124.160 126.692  1.00  0.00    +0.097 A 
ATOM     21  C   UNL     1     129.699 126.634 127.929  1.00  0.00    +0.054 A 
ATOM     22  C   UNL     1     129.245 124.305 127.574  1.00  0.00    +0.169 A 
ATOM     23  C   UNL     1     128.952 125.505 128.175  1.00  0.00    +0.166 A 
ATOM     24  O   UNL     1     128.389 123.315 127.946  1.00  0.00    -0.453 OA
ATOM     25  O   UNL     1     127.878 125.423 129.002  1.00  0.00    -0.454 OA
ATOM     26  C   UNL     1     127.546 124.025 128.883  1.00  0.00    +0.468 C 
ENDBRANCH  17  18
ENDBRANCH  16  17
ENDBRANCH   6  16
TORSDOF 4
ENDMDL
MODEL 17
REMARK VINA RESULT:    -8.599      4.409      7.124
REMARK INTER + INTRA:         -11.735
REMARK INTER:                 -11.081
REMARK INTRA:                  -0.654
REMARK UNBOUND:                -1.125
REMARK SMILES Fc1ccc([C@@H]2CC[NH2+]C[C@H]2COc2ccc3c(c2)OCO3)cc1
REMARK SMILES IDX 6 1 7 2 8 3 9 4 10 5 11 6 5 9 2 10 3 11 24 12 4 13 23 14
REMARK SMILES IDX 1 15 12 16 13 17 14 18 15 19 19 20 16 21 18 22 17 23 20 24
REMARK SMILES IDX 22 25 21 26
REMARK H PARENT 9 7 9 8
REMARK INDEX MAP 8 1 9 2 10 3 11 4 12 5 13 6 34 7 35 8 5 9 2 10 3 11 7 12 4 13
REMARK INDEX MAP 6 14 1 15 14 16 15 17 16 18 17 19 24 20 18 21 23 22 19 23
REMARK INDEX MAP 22 24 20 25 21 26
ROOT
ATOM      1  C   UNL     1     135.049 125.555 122.724  1.00  0.00    +0.037 C 
ATOM      2  C   UNL     1     136.519 125.724 123.165  1.00  0.00    +0.070 C 
ATOM      3  C   UNL     1     136.631 126.335 124.548  1.00  0.00    +0.261 C 
ATOM      4  N   UNL     1     135.855 125.498 125.506  1.00  0.00    -0.346 N 
ATOM      5  C   UNL     1     134.407 125.393 125.171  1.00  0.00    +0.268 C 
ATOM      6  C   UNL     1     134.224 124.768 123.785  1.00  0.00    +0.089 C 
ATOM      7  H   UNL     1     136.274 124.557 125.560  1.00  0.00    +0.346 HD
ATOM      8  H   UNL     1     135.957 125.893 126.451  1.00  0.00    +0.346 HD
ENDROOT
BRANCH   1   9
ATOM      9  C   UNL     1     135.023 124.953 121.329  1.00  0.00    -0.044 A 
ATOM     10  C   UNL     1     135.000 123.800 118.779  1.00  0.00    +0.123 A 
ATOM     11  C   UNL     1     134.375 125.021 118.982  1.00  0.00    +0.039 A 
ATOM     12  C   UNL     1     135.633 123.141 119.823  1.00  0.00    +0.039 A 
ATOM     13  C   UNL     1     134.385 125.599 120.254  1.00  0.00    +0.007 A 
ATOM     14  C   UNL     1     135.645 123.714 121.096  1.00  0.00    +0.007 A 
ATOM     15  F   UNL     1     134.993 123.250 117.557  1.00  0.00    -0.207 F 
ENDBRANCH   1   9
BRANCH   6  16
ATOM     16  C   UNL     1     132.709 124.744 123.480  1.00  0.00    +0.239 C 
BRANCH  16  17
ATOM     17  O   UNL     1     132.020 125.858 124.029  1.00  0.00    -0.493 OA
BRANCH  17  18
ATOM     18  C   UNL     1     130.971 125.645 124.880  1.00  0.00    +0.123 A 
ATOM     19  C   UNL     1     129.956 126.620 124.798  1.00  0.00    +0.050 A 
ATOM     20  C   UNL     1     130.840 124.580 125.774  1.00  0.00    +0.097 A 
ATOM     21  C   UNL     1     128.805 126.540 125.588  1.00  0.00    +0.054 A 
ATOM     22  C   UNL     1     129.692 124.524 126.541  1.00  0.00    +0.169 A 
ATOM     23  C   UNL     1     128.704 125.474 126.452  1.00  0.00    +0.166 A 
ATOM     24  O   UNL     1     129.400 123.554 127.450  1.00  0.00    -0.453 OA
ATOM     25  O   UNL     1     127.667 125.225 127.294  1.00  0.00    -0.454 OA
ATOM     26  C   UNL     1     128.128 124.027 127.951  1.00  0.00    +0.468 C 
ENDBRANCH  17  18
ENDBRANCH  16  17
ENDBRANCH   6  16
TORSDOF 4
ENDMDL
MODEL 18
REMARK VINA RESULT:    -8.525      3.348      6.241
REMARK INTER + INTRA:         -11.644
REMARK INTER:                 -11.452
REMARK INTRA:                  -0.192
REMARK UNBOUND:                -1.125
REMARK SMILES Fc1ccc([C@@H]2CC[NH2+]C[C@H]2COc2ccc3c(c2)OCO3)cc1
REMARK SMILES IDX 6 1 7 2 8 3 9 4 10 5 11 6 5 9 2 10 3 11 24 12 4 13 23 14
REMARK SMILES IDX 1 15 12 16 13 17 14 18 15 19 19 20 16 21 18 22 17 23 20 24
REMARK SMILES IDX 22 25 21 26
REMARK H PARENT 9 7 9 8
REMARK INDEX MAP 8 1 9 2 10 3 11 4 12 5 13 6 34 7 35 8 5 9 2 10 3 11 7 12 4 13
REMARK INDEX MAP 6 14 1 15 14 16 15 17 16 18 17 19 24 20 18 21 23 22 19 23
REMARK INDEX MAP 22 24 20 25 21 26
ROOT
ATOM      1  C   UNL     1     135.423 125.138 123.180  1.00  0.00    +0.037 C 
ATOM      2  C   UNL     1     135.961 126.581 123.297  1.00  0.00    +0.070 C 
ATOM      3  C   UNL     1     136.004 127.056 124.736  1.00  0.00    +0.261 C 
ATOM      4  N   UNL     1     136.815 126.094 125.534  1.00  0.00    -0.346 N 
ATOM      5  C   UNL     1     136.272 124.706 125.529  1.00  0.00    +0.268 C 
ATOM      6  C   UNL     1     136.214 124.161 124.100  1.00  0.00    +0.089 C 
ATOM      7  H   UNL     1     137.788 126.093 125.190  1.00  0.00    +0.346 HD
ATOM      8  H   UNL     1     136.873 126.432 126.505  1.00  0.00    +0.346 HD
ENDROOT
BRANCH   1   9
ATOM      9  C   UNL     1     135.398 124.743 121.713  1.00  0.00    -0.044 A 
ATOM     10  C   UNL     1     135.382 123.973 119.021  1.00  0.00    +0.123 A 
ATOM     11  C   UNL     1     134.631 125.068 119.424  1.00  0.00    +0.039 A 
ATOM     12  C   UNL     1     136.137 123.252 119.936  1.00  0.00    +0.039 A 
ATOM     13  C   UNL     1     134.637 125.454 120.766  1.00  0.00    +0.007 A 
ATOM     14  C   UNL     1     136.146 123.634 121.279  1.00  0.00    +0.007 A 
ATOM     15  F   UNL     1     135.377 123.608 117.733  1.00  0.00    -0.207 F 
ENDBRANCH   1   9
BRANCH   6  16
ATOM     16  C   UNL     1     135.590 122.748 124.163  1.00  0.00    +0.239 C 
BRANCH  16  17
ATOM     17  O   UNL     1     134.261 122.712 123.661  1.00  0.00    -0.493 OA
BRANCH  17  18
ATOM     18  C   UNL     1     133.214 122.904 124.520  1.00  0.00    +0.123 A 
ATOM     19  C   UNL     1     133.258 122.092 125.671  1.00  0.00    +0.050 A 
ATOM     20  C   UNL     1     132.164 123.807 124.348  1.00  0.00    +0.097 A 
ATOM     21  C   UNL     1     132.273 122.177 126.659  1.00  0.00    +0.054 A 
ATOM     22  C   UNL     1     131.204 123.873 125.340  1.00  0.00    +0.169 A 
ATOM     23  C   UNL     1     131.256 123.083 126.463  1.00  0.00    +0.166 A 
ATOM     24  O   UNL     1     130.124 124.701 125.337  1.00  0.00    -0.453 OA
ATOM     25  O   UNL     1     130.216 123.310 127.306  1.00  0.00    -0.454 OA
ATOM     26  C   UNL     1     129.480 124.310 126.572  1.00  0.00    +0.468 C 
ENDBRANCH  17  18
ENDBRANCH  16  17
ENDBRANCH   6  16
TORSDOF 4
ENDMDL
MODEL 19
REMARK VINA RESULT:    -8.468      5.527      7.205
REMARK INTER + INTRA:         -11.573
REMARK INTER:                 -10.851
REMARK INTRA:                  -0.723
REMARK UNBOUND:                -1.125
REMARK SMILES Fc1ccc([C@@H]2CC[NH2+]C[C@H]2COc2ccc3c(c2)OCO3)cc1
REMARK SMILES IDX 6 1 7 2 8 3 9 4 10 5 11 6 5 9 2 10 3 11 24 12 4 13 23 14
REMARK SMILES IDX 1 15 12 16 13 17 14 18 15 19 19 20 16 21 18 22 17 23 20 24
REMARK SMILES IDX 22 25 21 26
REMARK H PARENT 9 7 9 8
REMARK INDEX MAP 8 1 9 2 10 3 11 4 12 5 13 6 34 7 35 8 5 9 2 10 3 11 7 12 4 13
REMARK INDEX MAP 6 14 1 15 14 16 15 17 16 18 17 19 24 20 18 21 23 22 19 23
REMARK INDEX MAP 22 24 20 25 21 26
ROOT
ATOM      1  C   UNL     1     128.875 126.797 125.576  1.00  0.00    +0.037 C 
ATOM      2  C   UNL     1     128.190 127.428 126.808  1.00  0.00    +0.070 C 
ATOM      3  C   UNL     1     128.350 126.569 128.048  1.00  0.00    +0.261 C 
ATOM      4  N   UNL     1     129.803 126.330 128.280  1.00  0.00    -0.346 N 
ATOM      5  C   UNL     1     130.481 125.630 127.153  1.00  0.00    +0.268 C 
ATOM      6  C   UNL     1     130.366 126.455 125.868  1.00  0.00    +0.089 C 
ATOM      7  H   UNL     1     130.275 127.227 128.474  1.00  0.00    +0.346 HD
ATOM      8  H   UNL     1     129.915 125.775 129.140  1.00  0.00    +0.346 HD
ENDROOT
BRANCH   1   9
ATOM      9  C   UNL     1     128.657 127.706 124.378  1.00  0.00    -0.044 A 
ATOM     10  C   UNL     1     128.218 129.346 122.152  1.00  0.00    +0.123 A 
ATOM     11  C   UNL     1     129.121 129.744 123.127  1.00  0.00    +0.039 A 
ATOM     12  C   UNL     1     127.527 128.148 122.267  1.00  0.00    +0.039 A 
ATOM     13  C   UNL     1     129.341 128.927 124.239  1.00  0.00    +0.007 A 
ATOM     14  C   UNL     1     127.744 127.329 123.377  1.00  0.00    +0.007 A 
ATOM     15  F   UNL     1     128.012 130.129 121.085  1.00  0.00    -0.207 F 
ENDBRANCH   1   9
BRANCH   6  16
ATOM     16  C   UNL     1     131.036 125.647 124.733  1.00  0.00    +0.239 C 
BRANCH  16  17
ATOM     17  O   UNL     1     132.277 125.076 125.124  1.00  0.00    -0.493 OA
BRANCH  17  18
ATOM     18  C   UNL     1     133.282 124.962 124.203  1.00  0.00    +0.123 A 
ATOM     19  C   UNL     1     133.644 123.631 123.908  1.00  0.00    +0.050 A 
ATOM     20  C   UNL     1     133.936 126.016 123.563  1.00  0.00    +0.097 A 
ATOM     21  C   UNL     1     134.642 123.339 122.974  1.00  0.00    +0.054 A 
ATOM     22  C   UNL     1     134.917 125.700 122.643  1.00  0.00    +0.169 A 
ATOM     23  C   UNL     1     135.261 124.401 122.356  1.00  0.00    +0.166 A 
ATOM     24  O   UNL     1     135.642 126.600 121.924  1.00  0.00    -0.453 OA
ATOM     25  O   UNL     1     136.246 124.318 121.424  1.00  0.00    -0.454 OA
ATOM     26  C   UNL     1     136.511 125.715 121.180  1.00  0.00    +0.468 C 
ENDBRANCH  17  18
ENDBRANCH  16  17
ENDBRANCH   6  16
TORSDOF 4
ENDMDL
MODEL 20
REMARK VINA RESULT:    -8.214      5.261      7.188
REMARK INTER + INTRA:         -11.260
REMARK INTER:                 -10.588
REMARK INTRA:                  -0.672
REMARK UNBOUND:                -1.125
REMARK SMILES Fc1ccc([C@@H]2CC[NH2+]C[C@H]2COc2ccc3c(c2)OCO3)cc1
REMARK SMILES IDX 6 1 7 2 8 3 9 4 10 5 11 6 5 9 2 10 3 11 24 12 4 13 23 14
REMARK SMILES IDX 1 15 12 16 13 17 14 18 15 19 19 20 16 21 18 22 17 23 20 24
REMARK SMILES IDX 22 25 21 26
REMARK H PARENT 9 7 9 8
REMARK INDEX MAP 8 1 9 2 10 3 11 4 12 5 13 6 34 7 35 8 5 9 2 10 3 11 7 12 4 13
REMARK INDEX MAP 6 14 1 15 14 16 15 17 16 18 17 19 24 20 18 21 23 22 19 23
REMARK INDEX MAP 22 24 20 25 21 26
ROOT
ATOM      1  C   UNL     1     130.188 127.654 126.054  1.00  0.00    +0.037 C 
ATOM      2  C   UNL     1     128.732 127.834 125.572  1.00  0.00    +0.070 C 
ATOM      3  C   UNL     1     128.641 127.934 124.062  1.00  0.00    +0.261 C 
ATOM      4  N   UNL     1     129.280 126.728 123.464  1.00  0.00    -0.346 N 
ATOM      5  C   UNL     1     130.718 126.573 123.824  1.00  0.00    +0.268 C 
ATOM      6  C   UNL     1     130.877 126.453 125.342  1.00  0.00    +0.089 C 
ATOM      7  H   UNL     1     128.754 125.885 123.740  1.00  0.00    +0.346 HD
ATOM      8  H   UNL     1     129.190 126.779 122.439  1.00  0.00    +0.346 HD
ENDROOT
BRANCH   1   9
ATOM      9  C   UNL     1     130.194 127.578 127.572  1.00  0.00    -0.044 A 
ATOM     10  C   UNL     1     130.247 127.475 130.369  1.00  0.00    +0.123 A 
ATOM     11  C   UNL     1     129.306 126.729 129.674  1.00  0.00    +0.039 A 
ATOM     12  C   UNL     1     131.160 128.274 129.696  1.00  0.00    +0.039 A 
ATOM     13  C   UNL     1     129.277 126.779 128.279  1.00  0.00    +0.007 A 
ATOM     14  C   UNL     1     131.135 128.328 128.300  1.00  0.00    +0.007 A 
ATOM     15  F   UNL     1     130.274 127.421 131.707  1.00  0.00    -0.207 F 
ENDBRANCH   1   9
BRANCH   6  16
ATOM     16  C   UNL     1     132.390 126.354 125.646  1.00  0.00    +0.239 C 
BRANCH  16  17
ATOM     17  O   UNL     1     133.137 125.834 124.556  1.00  0.00    -0.493 OA
BRANCH  17  18
ATOM     18  C   UNL     1     134.086 124.877 124.789  1.00  0.00    +0.123 A 
ATOM     19  C   UNL     1     135.309 125.106 124.126  1.00  0.00    +0.050 A 
ATOM     20  C   UNL     1     133.938 123.752 125.602  1.00  0.00    +0.097 A 
ATOM     21  C   UNL     1     136.390 124.232 124.273  1.00  0.00    +0.054 A 
ATOM     22  C   UNL     1     135.022 122.905 125.731  1.00  0.00    +0.169 A 
ATOM     23  C   UNL     1     136.213 123.137 125.087  1.00  0.00    +0.166 A 
ATOM     24  O   UNL     1     135.052 121.774 126.488  1.00  0.00    -0.453 OA
ATOM     25  O   UNL     1     137.142 122.183 125.353  1.00  0.00    -0.454 OA
ATOM     26  C   UNL     1     136.391 121.300 126.212  1.00  0.00    +0.468 C 
ENDBRANCH  17  18
ENDBRANCH  16  17
ENDBRANCH   6  16
TORSDOF 4
ENDMDL
