MODEL 1
REMARK VINA RESULT:    -8.729      0.000      0.000
REMARK INTER + INTRA:         -12.992
REMARK INTER:                 -12.301
REMARK INTRA:                  -0.691
REMARK UNBOUND:                -0.691
REMARK SMILES COC(=O)c1cccc(CCN(C)Cc2ccccc2)c1
REMARK SMILES IDX 10 1 11 2 12 3 13 4 14 5 15 6 16 7 20 8 17 9 19 10 18 11
REMARK SMILES IDX 9 12 8 13 21 14 7 15 5 16 6 17 3 18 4 19 2 20 1 21
REMARK H PARENT
REMARK INDEX MAP 4 1 3 2 2 3 1 4 15 5 16 6 17 7 21 8 18 9 20 10 19 11 5 12
REMARK INDEX MAP 6 13 10 14 7 15 9 16 8 17 11 18 12 19 13 20 14 21
ROOT
ATOM      1  C   UNL     1     136.060 123.210 122.956  1.00  0.00    +0.051 C 
ENDROOT
BRANCH   1   2
ATOM      2  C   UNL     1     135.431 124.521 122.450  1.00  0.00    +0.089 C 
BRANCH   2   3
ATOM      3  N   UNL     1     134.639 124.448 121.208  1.00  0.00    -0.302 NA
ATOM      4  C   UNL     1     133.533 125.403 121.205  1.00  0.00    +0.105 C 
BRANCH   3   5
ATOM      5  C   UNL     1     135.437 124.579 119.977  1.00  0.00    +0.119 C 
BRANCH   5   6
ATOM      6  C   UNL     1     135.235 123.446 118.994  1.00  0.00    -0.034 A 
ATOM      7  C   UNL     1     134.904 123.716 117.658  1.00  0.00    +0.005 A 
ATOM      8  C   UNL     1     135.366 122.110 119.402  1.00  0.00    +0.005 A 
ATOM      9  C   UNL     1     134.706 122.673 116.751  1.00  0.00    +0.000 A 
ATOM     10  C   UNL     1     135.164 121.069 118.496  1.00  0.00    +0.000 A 
ATOM     11  C   UNL     1     134.836 121.351 117.171  1.00  0.00    +0.000 A 
ENDBRANCH   5   6
ENDBRANCH   3   5
ENDBRANCH   2   3
ENDBRANCH   1   2
BRANCH   1  12
ATOM     12  C   UNL     1     135.229 122.582 124.052  1.00  0.00    -0.046 A 
ATOM     13  C   UNL     1     135.777 121.610 124.897  1.00  0.00    +0.004 A 
ATOM     14  C   UNL     1     133.901 122.989 124.251  1.00  0.00    +0.019 A 
ATOM     15  C   UNL     1     135.010 121.048 125.918  1.00  0.00    +0.001 A 
ATOM     16  C   UNL     1     133.125 122.427 125.274  1.00  0.00    +0.060 A 
ATOM     17  C   UNL     1     133.687 121.451 126.107  1.00  0.00    +0.016 A 
BRANCH  16  18
ATOM     18  C   UNL     1     131.719 122.894 125.425  1.00  0.00    +0.337 C 
ATOM     19  O   UNL     1     130.975 123.116 124.482  1.00  0.00    -0.246 OA
BRANCH  18  20
ATOM     20  O   UNL     1     131.398 123.033 126.736  1.00  0.00    -0.465 OA
ATOM     21  C   UNL     1     130.393 124.016 126.984  1.00  0.00    +0.282 C 
ENDBRANCH  18  20
ENDBRANCH  16  18
ENDBRANCH   1  12
TORSDOF 7
ENDMDL
MODEL 2
REMARK VINA RESULT:    -8.637      3.183      6.875
REMARK INTER + INTRA:         -12.863
REMARK INTER:                 -11.990
REMARK INTRA:                  -0.872
REMARK UNBOUND:                -0.691
REMARK SMILES COC(=O)c1cccc(CCN(C)Cc2ccccc2)c1
REMARK SMILES IDX 10 1 11 2 12 3 13 4 14 5 15 6 16 7 20 8 17 9 19 10 18 11
REMARK SMILES IDX 9 12 8 13 21 14 7 15 5 16 6 17 3 18 4 19 2 20 1 21
REMARK H PARENT
REMARK INDEX MAP 4 1 3 2 2 3 1 4 15 5 16 6 17 7 21 8 18 9 20 10 19 11 5 12
REMARK INDEX MAP 6 13 10 14 7 15 9 16 8 17 11 18 12 19 13 20 14 21
ROOT
ATOM      1  C   UNL     1     134.206 126.585 121.613  1.00  0.00    +0.051 C 
ENDROOT
BRANCH   1   2
ATOM      2  C   UNL     1     133.072 126.097 122.533  1.00  0.00    +0.089 C 
BRANCH   2   3
ATOM      3  N   UNL     1     133.462 125.301 123.712  1.00  0.00    -0.302 NA
ATOM      4  C   UNL     1     133.147 125.986 124.964  1.00  0.00    +0.105 C 
BRANCH   3   5
ATOM      5  C   UNL     1     132.917 123.933 123.721  1.00  0.00    +0.119 C 
BRANCH   5   6
ATOM      6  C   UNL     1     133.776 122.938 124.471  1.00  0.00    -0.034 A 
ATOM      7  C   UNL     1     133.277 122.285 125.608  1.00  0.00    +0.005 A 
ATOM      8  C   UNL     1     135.084 122.657 124.048  1.00  0.00    +0.005 A 
ATOM      9  C   UNL     1     134.070 121.375 126.309  1.00  0.00    +0.000 A 
ATOM     10  C   UNL     1     135.876 121.750 124.752  1.00  0.00    +0.000 A 
ATOM     11  C   UNL     1     135.369 121.109 125.881  1.00  0.00    +0.000 A 
ENDBRANCH   5   6
ENDBRANCH   3   5
ENDBRANCH   2   3
ENDBRANCH   1   2
BRANCH   1  12
ATOM     12  C   UNL     1     134.794 125.450 120.806  1.00  0.00    -0.046 A 
ATOM     13  C   UNL     1     135.877 124.710 121.295  1.00  0.00    +0.004 A 
ATOM     14  C   UNL     1     134.239 125.106 119.564  1.00  0.00    +0.019 A 
ATOM     15  C   UNL     1     136.403 123.652 120.553  1.00  0.00    +0.001 A 
ATOM     16  C   UNL     1     134.764 124.045 118.812  1.00  0.00    +0.060 A 
ATOM     17  C   UNL     1     135.852 123.320 119.315  1.00  0.00    +0.016 A 
BRANCH  16  18
ATOM     18  C   UNL     1     134.138 123.739 117.497  1.00  0.00    +0.337 C 
ATOM     19  O   UNL     1     133.489 124.549 116.852  1.00  0.00    -0.246 OA
BRANCH  18  20
ATOM     20  O   UNL     1     134.387 122.457 117.133  1.00  0.00    -0.465 OA
ATOM     21  C   UNL     1     135.166 122.333 115.943  1.00  0.00    +0.282 C 
ENDBRANCH  18  20
ENDBRANCH  16  18
ENDBRANCH   1  12
TORSDOF 7
ENDMDL
MODEL 3
REMARK VINA RESULT:    -8.623      3.071      6.070
REMARK INTER + INTRA:         -12.843
REMARK INTER:                 -10.271
REMARK INTRA:                  -2.571
REMARK UNBOUND:                -0.691
REMARK SMILES COC(=O)c1cccc(CCN(C)Cc2ccccc2)c1
REMARK SMILES IDX 10 1 11 2 12 3 13 4 14 5 15 6 16 7 20 8 17 9 19 10 18 11
REMARK SMILES IDX 9 12 8 13 21 14 7 15 5 16 6 17 3 18 4 19 2 20 1 21
REMARK H PARENT
REMARK INDEX MAP 4 1 3 2 2 3 1 4 15 5 16 6 17 7 21 8 18 9 20 10 19 11 5 12
REMARK INDEX MAP 6 13 10 14 7 15 9 16 8 17 11 18 12 19 13 20 14 21
ROOT
ATOM      1  C   UNL     1     136.068 121.849 125.248  1.00  0.00    +0.051 C 
ENDROOT
BRANCH   1   2
ATOM      2  C   UNL     1     135.095 122.035 126.427  1.00  0.00    +0.089 C 
BRANCH   2   3
ATOM      3  N   UNL     1     133.656 122.078 126.107  1.00  0.00    -0.302 NA
ATOM      4  C   UNL     1     132.910 121.023 126.790  1.00  0.00    +0.105 C 
BRANCH   3   5
ATOM      5  C   UNL     1     133.027 123.389 126.341  1.00  0.00    +0.119 C 
BRANCH   5   6
ATOM      6  C   UNL     1     132.771 124.178 125.075  1.00  0.00    -0.034 A 
ATOM      7  C   UNL     1     132.379 123.524 123.898  1.00  0.00    +0.005 A 
ATOM      8  C   UNL     1     132.928 125.573 125.055  1.00  0.00    +0.005 A 
ATOM      9  C   UNL     1     132.153 124.248 122.725  1.00  0.00    +0.000 A 
ATOM     10  C   UNL     1     132.706 126.294 123.882  1.00  0.00    +0.000 A 
ATOM     11  C   UNL     1     132.318 125.632 122.719  1.00  0.00    +0.000 A 
ENDBRANCH   5   6
ENDBRANCH   3   5
ENDBRANCH   2   3
ENDBRANCH   1   2
BRANCH   1  12
ATOM     12  C   UNL     1     136.086 123.063 124.346  1.00  0.00    -0.046 A 
ATOM     13  C   UNL     1     136.426 124.324 124.850  1.00  0.00    +0.004 A 
ATOM     14  C   UNL     1     135.788 122.931 122.981  1.00  0.00    +0.019 A 
ATOM     15  C   UNL     1     136.458 125.436 124.008  1.00  0.00    +0.001 A 
ATOM     16  C   UNL     1     135.817 124.045 122.130  1.00  0.00    +0.060 A 
ATOM     17  C   UNL     1     136.153 125.300 122.653  1.00  0.00    +0.016 A 
BRANCH  16  18
ATOM     18  C   UNL     1     135.478 123.841 120.694  1.00  0.00    +0.337 C 
ATOM     19  O   UNL     1     135.690 122.800 120.092  1.00  0.00    -0.246 OA
BRANCH  18  20
ATOM     20  O   UNL     1     134.917 124.958 120.170  1.00  0.00    -0.465 OA
ATOM     21  C   UNL     1     134.503 124.816 118.812  1.00  0.00    +0.282 C 
ENDBRANCH  18  20
ENDBRANCH  16  18
ENDBRANCH   1  12
TORSDOF 7
ENDMDL
MODEL 4
REMARK VINA RESULT:    -8.503      2.952      5.044
REMARK INTER + INTRA:         -12.673
REMARK INTER:                 -10.379
REMARK INTRA:                  -2.294
REMARK UNBOUND:                -0.691
REMARK SMILES COC(=O)c1cccc(CCN(C)Cc2ccccc2)c1
REMARK SMILES IDX 10 1 11 2 12 3 13 4 14 5 15 6 16 7 20 8 17 9 19 10 18 11
REMARK SMILES IDX 9 12 8 13 21 14 7 15 5 16 6 17 3 18 4 19 2 20 1 21
REMARK H PARENT
REMARK INDEX MAP 4 1 3 2 2 3 1 4 15 5 16 6 17 7 21 8 18 9 20 10 19 11 5 12
REMARK INDEX MAP 6 13 10 14 7 15 9 16 8 17 11 18 12 19 13 20 14 21
ROOT
ATOM      1  C   UNL     1     132.739 124.800 122.349  1.00  0.00    +0.051 C 
ENDROOT
BRANCH   1   2
ATOM      2  C   UNL     1     134.040 125.623 122.336  1.00  0.00    +0.089 C 
BRANCH   2   3
ATOM      3  N   UNL     1     135.308 124.871 122.275  1.00  0.00    -0.302 NA
ATOM      4  C   UNL     1     136.153 125.310 121.166  1.00  0.00    +0.105 C 
BRANCH   3   5
ATOM      5  C   UNL     1     136.069 124.872 123.535  1.00  0.00    +0.119 C 
BRANCH   5   6
ATOM      6  C   UNL     1     135.680 123.759 124.485  1.00  0.00    -0.034 A 
ATOM      7  C   UNL     1     135.372 124.045 125.824  1.00  0.00    +0.005 A 
ATOM      8  C   UNL     1     135.626 122.427 124.047  1.00  0.00    +0.005 A 
ATOM      9  C   UNL     1     135.023 123.020 126.705  1.00  0.00    +0.000 A 
ATOM     10  C   UNL     1     135.281 121.404 124.930  1.00  0.00    +0.000 A 
ATOM     11  C   UNL     1     134.979 121.701 126.258  1.00  0.00    +0.000 A 
ENDBRANCH   5   6
ENDBRANCH   3   5
ENDBRANCH   2   3
ENDBRANCH   1   2
BRANCH   1  12
ATOM     12  C   UNL     1     132.234 124.581 123.758  1.00  0.00    -0.046 A 
ATOM     13  C   UNL     1     131.990 123.289 124.238  1.00  0.00    +0.004 A 
ATOM     14  C   UNL     1     132.031 125.677 124.611  1.00  0.00    +0.019 A 
ATOM     15  C   UNL     1     131.541 123.094 125.545  1.00  0.00    +0.001 A 
ATOM     16  C   UNL     1     131.579 125.487 125.925  1.00  0.00    +0.060 A 
ATOM     17  C   UNL     1     131.333 124.188 126.387  1.00  0.00    +0.016 A 
BRANCH  16  18
ATOM     18  C   UNL     1     131.371 126.691 126.776  1.00  0.00    +0.337 C 
ATOM     19  O   UNL     1     131.999 127.730 126.641  1.00  0.00    -0.246 OA
BRANCH  18  20
ATOM     20  O   UNL     1     130.407 126.464 127.703  1.00  0.00    -0.465 OA
ATOM     21  C   UNL     1     129.266 127.311 127.571  1.00  0.00    +0.282 C 
ENDBRANCH  18  20
ENDBRANCH  16  18
ENDBRANCH   1  12
TORSDOF 7
ENDMDL
MODEL 5
REMARK VINA RESULT:    -8.502      2.013      4.266
REMARK INTER + INTRA:         -12.673
REMARK INTER:                 -10.154
REMARK INTRA:                  -2.519
REMARK UNBOUND:                -0.691
REMARK SMILES COC(=O)c1cccc(CCN(C)Cc2ccccc2)c1
REMARK SMILES IDX 10 1 11 2 12 3 13 4 14 5 15 6 16 7 20 8 17 9 19 10 18 11
REMARK SMILES IDX 9 12 8 13 21 14 7 15 5 16 6 17 3 18 4 19 2 20 1 21
REMARK H PARENT
REMARK INDEX MAP 4 1 3 2 2 3 1 4 15 5 16 6 17 7 21 8 18 9 20 10 19 11 5 12
REMARK INDEX MAP 6 13 10 14 7 15 9 16 8 17 11 18 12 19 13 20 14 21
ROOT
ATOM      1  C   UNL     1     132.372 124.810 121.766  1.00  0.00    +0.051 C 
ENDROOT
BRANCH   1   2
ATOM      2  C   UNL     1     133.529 125.540 121.059  1.00  0.00    +0.089 C 
BRANCH   2   3
ATOM      3  N   UNL     1     134.527 124.702 120.368  1.00  0.00    -0.302 NA
ATOM      4  C   UNL     1     134.595 124.997 118.938  1.00  0.00    +0.105 C 
BRANCH   3   5
ATOM      5  C   UNL     1     135.871 124.749 120.969  1.00  0.00    +0.119 C 
BRANCH   5   6
ATOM      6  C   UNL     1     135.932 124.187 122.372  1.00  0.00    -0.034 A 
ATOM      7  C   UNL     1     136.346 124.994 123.443  1.00  0.00    +0.005 A 
ATOM      8  C   UNL     1     135.585 122.851 122.626  1.00  0.00    +0.005 A 
ATOM      9  C   UNL     1     136.415 124.475 124.737  1.00  0.00    +0.000 A 
ATOM     10  C   UNL     1     135.658 122.333 123.919  1.00  0.00    +0.000 A 
ATOM     11  C   UNL     1     136.072 123.145 124.974  1.00  0.00    +0.000 A 
ENDBRANCH   5   6
ENDBRANCH   3   5
ENDBRANCH   2   3
ENDBRANCH   1   2
BRANCH   1  12
ATOM     12  C   UNL     1     132.507 124.883 123.270  1.00  0.00    -0.046 A 
ATOM     13  C   UNL     1     132.973 126.047 123.891  1.00  0.00    +0.004 A 
ATOM     14  C   UNL     1     132.136 123.787 124.065  1.00  0.00    +0.019 A 
ATOM     15  C   UNL     1     133.077 126.114 125.282  1.00  0.00    +0.001 A 
ATOM     16  C   UNL     1     132.240 123.847 125.462  1.00  0.00    +0.060 A 
ATOM     17  C   UNL     1     132.714 125.018 126.066  1.00  0.00    +0.016 A 
BRANCH  16  18
ATOM     18  C   UNL     1     131.842 122.646 126.248  1.00  0.00    +0.337 C 
ATOM     19  O   UNL     1     130.963 122.654 127.095  1.00  0.00    -0.246 OA
BRANCH  18  20
ATOM     20  O   UNL     1     132.587 121.571 125.890  1.00  0.00    -0.465 OA
ATOM     21  C   UNL     1     133.590 121.219 126.843  1.00  0.00    +0.282 C 
ENDBRANCH  18  20
ENDBRANCH  16  18
ENDBRANCH   1  12
TORSDOF 7
ENDMDL
MODEL 6
REMARK VINA RESULT:    -8.398      3.157      6.815
REMARK INTER + INTRA:         -12.526
REMARK INTER:                 -11.188
REMARK INTRA:                  -1.338
REMARK UNBOUND:                -0.691
REMARK SMILES COC(=O)c1cccc(CCN(C)Cc2ccccc2)c1
REMARK SMILES IDX 10 1 11 2 12 3 13 4 14 5 15 6 16 7 20 8 17 9 19 10 18 11
REMARK SMILES IDX 9 12 8 13 21 14 7 15 5 16 6 17 3 18 4 19 2 20 1 21
REMARK H PARENT
REMARK INDEX MAP 4 1 3 2 2 3 1 4 15 5 16 6 17 7 21 8 18 9 20 10 19 11 5 12
REMARK INDEX MAP 6 13 10 14 7 15 9 16 8 17 11 18 12 19 13 20 14 21
ROOT
ATOM      1  C   UNL     1     133.237 125.957 122.880  1.00  0.00    +0.051 C 
ENDROOT
BRANCH   1   2
ATOM      2  C   UNL     1     132.416 125.217 123.951  1.00  0.00    +0.089 C 
BRANCH   2   3
ATOM      3  N   UNL     1     132.762 125.479 125.361  1.00  0.00    -0.302 NA
ATOM      4  C   UNL     1     131.990 126.588 125.919  1.00  0.00    +0.105 C 
BRANCH   3   5
ATOM      5  C   UNL     1     132.669 124.296 126.233  1.00  0.00    +0.119 C 
BRANCH   5   6
ATOM      6  C   UNL     1     133.778 123.289 126.017  1.00  0.00    -0.034 A 
ATOM      7  C   UNL     1     133.483 121.992 125.572  1.00  0.00    +0.005 A 
ATOM      8  C   UNL     1     135.116 123.632 126.265  1.00  0.00    +0.005 A 
ATOM      9  C   UNL     1     134.503 121.057 125.383  1.00  0.00    +0.000 A 
ATOM     10  C   UNL     1     136.134 122.696 126.078  1.00  0.00    +0.000 A 
ATOM     11  C   UNL     1     135.827 121.410 125.637  1.00  0.00    +0.000 A 
ENDBRANCH   5   6
ENDBRANCH   3   5
ENDBRANCH   2   3
ENDBRANCH   1   2
BRANCH   1  12
ATOM     12  C   UNL     1     134.082 125.001 122.069  1.00  0.00    -0.046 A 
ATOM     13  C   UNL     1     134.882 124.041 122.700  1.00  0.00    +0.004 A 
ATOM     14  C   UNL     1     134.051 125.049 120.667  1.00  0.00    +0.019 A 
ATOM     15  C   UNL     1     135.645 123.150 121.945  1.00  0.00    +0.001 A 
ATOM     16  C   UNL     1     134.817 124.157 119.902  1.00  0.00    +0.060 A 
ATOM     17  C   UNL     1     135.616 123.207 120.551  1.00  0.00    +0.016 A 
BRANCH  16  18
ATOM     18  C   UNL     1     134.750 124.268 118.419  1.00  0.00    +0.337 C 
ATOM     19  O   UNL     1     134.278 125.230 117.834  1.00  0.00    -0.246 OA
BRANCH  18  20
ATOM     20  O   UNL     1     135.275 123.164 117.832  1.00  0.00    -0.465 OA
ATOM     21  C   UNL     1     134.625 122.789 116.617  1.00  0.00    +0.282 C 
ENDBRANCH  18  20
ENDBRANCH  16  18
ENDBRANCH   1  12
TORSDOF 7
ENDMDL
MODEL 7
REMARK VINA RESULT:    -8.274      3.101      5.927
REMARK INTER + INTRA:         -12.352
REMARK INTER:                  -9.940
REMARK INTRA:                  -2.412
REMARK UNBOUND:                -0.691
REMARK SMILES COC(=O)c1cccc(CCN(C)Cc2ccccc2)c1
REMARK SMILES IDX 10 1 11 2 12 3 13 4 14 5 15 6 16 7 20 8 17 9 19 10 18 11
REMARK SMILES IDX 9 12 8 13 21 14 7 15 5 16 6 17 3 18 4 19 2 20 1 21
REMARK H PARENT
REMARK INDEX MAP 4 1 3 2 2 3 1 4 15 5 16 6 17 7 21 8 18 9 20 10 19 11 5 12
REMARK INDEX MAP 6 13 10 14 7 15 9 16 8 17 11 18 12 19 13 20 14 21
ROOT
ATOM      1  C   UNL     1     135.622 121.779 124.488  1.00  0.00    +0.051 C 
ENDROOT
BRANCH   1   2
ATOM      2  C   UNL     1     134.921 122.219 125.786  1.00  0.00    +0.089 C 
BRANCH   2   3
ATOM      3  N   UNL     1     133.458 122.041 125.850  1.00  0.00    -0.302 NA
ATOM      4  C   UNL     1     133.076 120.957 126.753  1.00  0.00    +0.105 C 
BRANCH   3   5
ATOM      5  C   UNL     1     132.716 123.270 126.177  1.00  0.00    +0.119 C 
BRANCH   5   6
ATOM      6  C   UNL     1     132.434 124.151 124.978  1.00  0.00    -0.034 A 
ATOM      7  C   UNL     1     132.171 123.580 123.724  1.00  0.00    +0.005 A 
ATOM      8  C   UNL     1     132.439 125.549 125.098  1.00  0.00    +0.005 A 
ATOM      9  C   UNL     1     131.921 124.389 122.614  1.00  0.00    +0.000 A 
ATOM     10  C   UNL     1     132.193 126.356 123.987  1.00  0.00    +0.000 A 
ATOM     11  C   UNL     1     131.934 125.776 122.747  1.00  0.00    +0.000 A 
ENDBRANCH   5   6
ENDBRANCH   3   5
ENDBRANCH   2   3
ENDBRANCH   1   2
BRANCH   1  12
ATOM     12  C   UNL     1     135.589 122.871 123.441  1.00  0.00    -0.046 A 
ATOM     13  C   UNL     1     135.393 122.561 122.090  1.00  0.00    +0.004 A 
ATOM     14  C   UNL     1     135.727 124.215 123.820  1.00  0.00    +0.019 A 
ATOM     15  C   UNL     1     135.345 123.574 121.132  1.00  0.00    +0.001 A 
ATOM     16  C   UNL     1     135.682 125.238 122.862  1.00  0.00    +0.060 A 
ATOM     17  C   UNL     1     135.491 124.909 121.514  1.00  0.00    +0.016 A 
BRANCH  16  18
ATOM     18  C   UNL     1     135.847 126.643 123.327  1.00  0.00    +0.337 C 
ATOM     19  O   UNL     1     136.074 127.580 122.579  1.00  0.00    -0.246 OA
BRANCH  18  20
ATOM     20  O   UNL     1     135.714 126.720 124.675  1.00  0.00    -0.465 OA
ATOM     21  C   UNL     1     136.754 127.457 125.318  1.00  0.00    +0.282 C 
ENDBRANCH  18  20
ENDBRANCH  16  18
ENDBRANCH   1  12
TORSDOF 7
ENDMDL
MODEL 8
REMARK VINA RESULT:    -8.124      3.611      6.186
REMARK INTER + INTRA:         -12.140
REMARK INTER:                  -9.736
REMARK INTRA:                  -2.404
REMARK UNBOUND:                -0.691
REMARK SMILES COC(=O)c1cccc(CCN(C)Cc2ccccc2)c1
REMARK SMILES IDX 10 1 11 2 12 3 13 4 14 5 15 6 16 7 20 8 17 9 19 10 18 11
REMARK SMILES IDX 9 12 8 13 21 14 7 15 5 16 6 17 3 18 4 19 2 20 1 21
REMARK H PARENT
REMARK INDEX MAP 4 1 3 2 2 3 1 4 15 5 16 6 17 7 21 8 18 9 20 10 19 11 5 12
REMARK INDEX MAP 6 13 10 14 7 15 9 16 8 17 11 18 12 19 13 20 14 21
ROOT
ATOM      1  C   UNL     1     132.854 124.945 121.886  1.00  0.00    +0.051 C 
ENDROOT
BRANCH   1   2
ATOM      2  C   UNL     1     131.609 124.786 122.778  1.00  0.00    +0.089 C 
BRANCH   2   3
ATOM      3  N   UNL     1     131.772 125.077 124.215  1.00  0.00    -0.302 NA
ATOM      4  C   UNL     1     131.070 126.296 124.611  1.00  0.00    +0.105 C 
BRANCH   3   5
ATOM      5  C   UNL     1     131.405 123.959 125.100  1.00  0.00    +0.119 C 
BRANCH   5   6
ATOM      6  C   UNL     1     132.593 123.252 125.716  1.00  0.00    -0.034 A 
ATOM      7  C   UNL     1     133.565 123.979 126.420  1.00  0.00    +0.005 A 
ATOM      8  C   UNL     1     132.747 121.863 125.588  1.00  0.00    +0.005 A 
ATOM      9  C   UNL     1     134.668 123.331 126.980  1.00  0.00    +0.000 A 
ATOM     10  C   UNL     1     133.852 121.218 126.145  1.00  0.00    +0.000 A 
ATOM     11  C   UNL     1     134.811 121.952 126.841  1.00  0.00    +0.000 A 
ENDBRANCH   5   6
ENDBRANCH   3   5
ENDBRANCH   2   3
ENDBRANCH   1   2
BRANCH   1  12
ATOM     12  C   UNL     1     134.094 124.405 122.562  1.00  0.00    -0.046 A 
ATOM     13  C   UNL     1     134.421 123.046 122.477  1.00  0.00    +0.004 A 
ATOM     14  C   UNL     1     134.948 125.270 123.262  1.00  0.00    +0.019 A 
ATOM     15  C   UNL     1     135.577 122.558 123.088  1.00  0.00    +0.001 A 
ATOM     16  C   UNL     1     136.110 124.785 123.880  1.00  0.00    +0.060 A 
ATOM     17  C   UNL     1     136.419 123.422 123.790  1.00  0.00    +0.016 A 
BRANCH  16  18
ATOM     18  C   UNL     1     136.969 125.752 124.618  1.00  0.00    +0.337 C 
ATOM     19  O   UNL     1     137.871 125.418 125.370  1.00  0.00    -0.246 OA
BRANCH  18  20
ATOM     20  O   UNL     1     136.604 127.028 124.338  1.00  0.00    -0.465 OA
ATOM     21  C   UNL     1     136.456 127.856 125.492  1.00  0.00    +0.282 C 
ENDBRANCH  18  20
ENDBRANCH  16  18
ENDBRANCH   1  12
TORSDOF 7
ENDMDL
MODEL 9
REMARK VINA RESULT:    -8.114      3.251      6.702
REMARK INTER + INTRA:         -12.126
REMARK INTER:                 -11.178
REMARK INTRA:                  -0.948
REMARK UNBOUND:                -0.691
REMARK SMILES COC(=O)c1cccc(CCN(C)Cc2ccccc2)c1
REMARK SMILES IDX 10 1 11 2 12 3 13 4 14 5 15 6 16 7 20 8 17 9 19 10 18 11
REMARK SMILES IDX 9 12 8 13 21 14 7 15 5 16 6 17 3 18 4 19 2 20 1 21
REMARK H PARENT
REMARK INDEX MAP 4 1 3 2 2 3 1 4 15 5 16 6 17 7 21 8 18 9 20 10 19 11 5 12
REMARK INDEX MAP 6 13 10 14 7 15 9 16 8 17 11 18 12 19 13 20 14 21
ROOT
ATOM      1  C   UNL     1     134.553 126.052 121.899  1.00  0.00    +0.051 C 
ENDROOT
BRANCH   1   2
ATOM      2  C   UNL     1     135.708 126.685 122.696  1.00  0.00    +0.089 C 
BRANCH   2   3
ATOM      3  N   UNL     1     135.899 126.221 124.083  1.00  0.00    -0.302 NA
ATOM      4  C   UNL     1     136.350 127.296 124.964  1.00  0.00    +0.105 C 
BRANCH   3   5
ATOM      5  C   UNL     1     134.725 125.542 124.656  1.00  0.00    +0.119 C 
BRANCH   5   6
ATOM      6  C   UNL     1     134.944 124.069 124.928  1.00  0.00    -0.034 A 
ATOM      7  C   UNL     1     136.243 123.554 125.043  1.00  0.00    +0.005 A 
ATOM      8  C   UNL     1     133.854 123.195 125.060  1.00  0.00    +0.005 A 
ATOM      9  C   UNL     1     136.449 122.194 125.282  1.00  0.00    +0.000 A 
ATOM     10  C   UNL     1     134.061 121.835 125.295  1.00  0.00    +0.000 A 
ATOM     11  C   UNL     1     135.358 121.336 125.407  1.00  0.00    +0.000 A 
ENDBRANCH   5   6
ENDBRANCH   3   5
ENDBRANCH   2   3
ENDBRANCH   1   2
BRANCH   1  12
ATOM     12  C   UNL     1     135.028 124.886 121.062  1.00  0.00    -0.046 A 
ATOM     13  C   UNL     1     135.768 123.846 121.638  1.00  0.00    +0.004 A 
ATOM     14  C   UNL     1     134.707 124.821 119.697  1.00  0.00    +0.019 A 
ATOM     15  C   UNL     1     136.188 122.765 120.863  1.00  0.00    +0.001 A 
ATOM     16  C   UNL     1     135.128 123.738 118.913  1.00  0.00    +0.060 A 
ATOM     17  C   UNL     1     135.872 122.709 119.504  1.00  0.00    +0.016 A 
BRANCH  16  18
ATOM     18  C   UNL     1     134.765 123.735 117.469  1.00  0.00    +0.337 C 
ATOM     19  O   UNL     1     135.273 122.988 116.646  1.00  0.00    -0.246 OA
BRANCH  18  20
ATOM     20  O   UNL     1     133.813 124.665 117.211  1.00  0.00    -0.465 OA
ATOM     21  C   UNL     1     132.625 124.131 116.628  1.00  0.00    +0.282 C 
ENDBRANCH  18  20
ENDBRANCH  16  18
ENDBRANCH   1  12
TORSDOF 7
ENDMDL
MODEL 10
REMARK VINA RESULT:    -7.971      4.417      7.403
REMARK INTER + INTRA:         -11.925
REMARK INTER:                 -11.241
REMARK INTRA:                  -0.683
REMARK UNBOUND:                -0.691
REMARK SMILES COC(=O)c1cccc(CCN(C)Cc2ccccc2)c1
REMARK SMILES IDX 10 1 11 2 12 3 13 4 14 5 15 6 16 7 20 8 17 9 19 10 18 11
REMARK SMILES IDX 9 12 8 13 21 14 7 15 5 16 6 17 3 18 4 19 2 20 1 21
REMARK H PARENT
REMARK INDEX MAP 4 1 3 2 2 3 1 4 15 5 16 6 17 7 21 8 18 9 20 10 19 11 5 12
REMARK INDEX MAP 6 13 10 14 7 15 9 16 8 17 11 18 12 19 13 20 14 21
ROOT
ATOM      1  C   UNL     1     131.720 125.661 122.859  1.00  0.00    +0.051 C 
ENDROOT
BRANCH   1   2
ATOM      2  C   UNL     1     131.605 125.691 124.394  1.00  0.00    +0.089 C 
BRANCH   2   3
ATOM      3  N   UNL     1     130.284 126.024 124.960  1.00  0.00    -0.302 NA
ATOM      4  C   UNL     1     130.054 125.359 126.241  1.00  0.00    +0.105 C 
BRANCH   3   5
ATOM      5  C   UNL     1     130.026 127.469 125.075  1.00  0.00    +0.119 C 
BRANCH   5   6
ATOM      6  C   UNL     1     129.181 128.030 123.952  1.00  0.00    -0.034 A 
ATOM      7  C   UNL     1     129.403 129.332 123.479  1.00  0.00    +0.005 A 
ATOM      8  C   UNL     1     128.159 127.263 123.372  1.00  0.00    +0.005 A 
ATOM      9  C   UNL     1     128.617 129.857 122.451  1.00  0.00    +0.000 A 
ATOM     10  C   UNL     1     127.372 127.791 122.347  1.00  0.00    +0.000 A 
ATOM     11  C   UNL     1     127.602 129.086 121.887  1.00  0.00    +0.000 A 
ENDBRANCH   5   6
ENDBRANCH   3   5
ENDBRANCH   2   3
ENDBRANCH   1   2
BRANCH   1  12
ATOM     12  C   UNL     1     133.144 125.417 122.413  1.00  0.00    -0.046 A 
ATOM     13  C   UNL     1     133.475 125.398 121.053  1.00  0.00    +0.004 A 
ATOM     14  C   UNL     1     134.159 125.234 123.365  1.00  0.00    +0.019 A 
ATOM     15  C   UNL     1     134.794 125.189 120.649  1.00  0.00    +0.001 A 
ATOM     16  C   UNL     1     135.486 125.022 122.965  1.00  0.00    +0.060 A 
ATOM     17  C   UNL     1     135.798 125.000 121.600  1.00  0.00    +0.016 A 
BRANCH  16  18
ATOM     18  C   UNL     1     136.515 124.823 124.024  1.00  0.00    +0.337 C 
ATOM     19  O   UNL     1     136.717 123.753 124.576  1.00  0.00    -0.246 OA
BRANCH  18  20
ATOM     20  O   UNL     1     137.173 125.981 124.277  1.00  0.00    -0.465 OA
ATOM     21  C   UNL     1     137.385 126.235 125.665  1.00  0.00    +0.282 C 
ENDBRANCH  18  20
ENDBRANCH  16  18
ENDBRANCH   1  12
TORSDOF 7
ENDMDL
MODEL 11
REMARK VINA RESULT:    -7.701      3.264      5.197
REMARK INTER + INTRA:         -11.544
REMARK INTER:                  -9.890
REMARK INTRA:                  -1.654
REMARK UNBOUND:                -0.691
REMARK SMILES COC(=O)c1cccc(CCN(C)Cc2ccccc2)c1
REMARK SMILES IDX 10 1 11 2 12 3 13 4 14 5 15 6 16 7 20 8 17 9 19 10 18 11
REMARK SMILES IDX 9 12 8 13 21 14 7 15 5 16 6 17 3 18 4 19 2 20 1 21
REMARK H PARENT
REMARK INDEX MAP 4 1 3 2 2 3 1 4 15 5 16 6 17 7 21 8 18 9 20 10 19 11 5 12
REMARK INDEX MAP 6 13 10 14 7 15 9 16 8 17 11 18 12 19 13 20 14 21
ROOT
ATOM      1  C   UNL     1     132.882 122.619 126.127  1.00  0.00    +0.051 C 
ENDROOT
BRANCH   1   2
ATOM      2  C   UNL     1     134.320 122.772 126.654  1.00  0.00    +0.089 C 
BRANCH   2   3
ATOM      3  N   UNL     1     135.313 121.787 126.186  1.00  0.00    -0.302 NA
ATOM      4  C   UNL     1     134.723 120.796 125.289  1.00  0.00    +0.105 C 
BRANCH   3   5
ATOM      5  C   UNL     1     136.512 122.385 125.576  1.00  0.00    +0.119 C 
BRANCH   5   6
ATOM      6  C   UNL     1     136.208 123.348 124.449  1.00  0.00    -0.034 A 
ATOM      7  C   UNL     1     136.029 122.875 123.140  1.00  0.00    +0.005 A 
ATOM      8  C   UNL     1     136.107 124.727 124.690  1.00  0.00    +0.005 A 
ATOM      9  C   UNL     1     135.760 123.761 122.095  1.00  0.00    +0.000 A 
ATOM     10  C   UNL     1     135.842 125.612 123.644  1.00  0.00    +0.000 A 
ATOM     11  C   UNL     1     135.667 125.129 122.348  1.00  0.00    +0.000 A 
ENDBRANCH   5   6
ENDBRANCH   3   5
ENDBRANCH   2   3
ENDBRANCH   1   2
BRANCH   1  12
ATOM     12  C   UNL     1     132.468 123.808 125.289  1.00  0.00    -0.046 A 
ATOM     13  C   UNL     1     132.487 123.738 123.890  1.00  0.00    +0.004 A 
ATOM     14  C   UNL     1     132.032 124.989 125.908  1.00  0.00    +0.019 A 
ATOM     15  C   UNL     1     132.087 124.833 123.123  1.00  0.00    +0.001 A 
ATOM     16  C   UNL     1     131.631 126.093 125.142  1.00  0.00    +0.060 A 
ATOM     17  C   UNL     1     131.662 126.008 123.744  1.00  0.00    +0.016 A 
BRANCH  16  18
ATOM     18  C   UNL     1     131.190 127.322 125.860  1.00  0.00    +0.337 C 
ATOM     19  O   UNL     1     130.767 128.318 125.295  1.00  0.00    -0.246 OA
BRANCH  18  20
ATOM     20  O   UNL     1     131.330 127.170 127.200  1.00  0.00    -0.465 OA
ATOM     21  C   UNL     1     130.652 128.164 127.969  1.00  0.00    +0.282 C 
ENDBRANCH  18  20
ENDBRANCH  16  18
ENDBRANCH   1  12
TORSDOF 7
ENDMDL
MODEL 12
REMARK VINA RESULT:    -7.694      4.136      6.876
REMARK INTER + INTRA:         -11.533
REMARK INTER:                 -11.098
REMARK INTRA:                  -0.436
REMARK UNBOUND:                -0.691
REMARK SMILES COC(=O)c1cccc(CCN(C)Cc2ccccc2)c1
REMARK SMILES IDX 10 1 11 2 12 3 13 4 14 5 15 6 16 7 20 8 17 9 19 10 18 11
REMARK SMILES IDX 9 12 8 13 21 14 7 15 5 16 6 17 3 18 4 19 2 20 1 21
REMARK H PARENT
REMARK INDEX MAP 4 1 3 2 2 3 1 4 15 5 16 6 17 7 21 8 18 9 20 10 19 11 5 12
REMARK INDEX MAP 6 13 10 14 7 15 9 16 8 17 11 18 12 19 13 20 14 21
ROOT
ATOM      1  C   UNL     1     131.915 125.206 123.097  1.00  0.00    +0.051 C 
ENDROOT
BRANCH   1   2
ATOM      2  C   UNL     1     131.560 125.433 124.578  1.00  0.00    +0.089 C 
BRANCH   2   3
ATOM      3  N   UNL     1     130.223 125.984 124.870  1.00  0.00    -0.302 NA
ATOM      4  C   UNL     1     129.659 125.434 126.100  1.00  0.00    +0.105 C 
BRANCH   3   5
ATOM      5  C   UNL     1     130.172 127.456 124.892  1.00  0.00    +0.119 C 
BRANCH   5   6
ATOM      6  C   UNL     1     129.254 128.051 123.846  1.00  0.00    -0.034 A 
ATOM      7  C   UNL     1     128.212 127.287 123.299  1.00  0.00    +0.005 A 
ATOM      8  C   UNL     1     129.432 129.370 123.401  1.00  0.00    +0.005 A 
ATOM      9  C   UNL     1     127.370 127.829 122.326  1.00  0.00    +0.000 A 
ATOM     10  C   UNL     1     128.592 129.909 122.426  1.00  0.00    +0.000 A 
ATOM     11  C   UNL     1     127.562 129.139 121.890  1.00  0.00    +0.000 A 
ENDBRANCH   5   6
ENDBRANCH   3   5
ENDBRANCH   2   3
ENDBRANCH   1   2
BRANCH   1  12
ATOM     12  C   UNL     1     133.190 124.408 122.947  1.00  0.00    -0.046 A 
ATOM     13  C   UNL     1     133.974 124.522 121.793  1.00  0.00    +0.004 A 
ATOM     14  C   UNL     1     133.617 123.561 123.982  1.00  0.00    +0.019 A 
ATOM     15  C   UNL     1     135.159 123.795 121.669  1.00  0.00    +0.001 A 
ATOM     16  C   UNL     1     134.806 122.827 123.863  1.00  0.00    +0.060 A 
ATOM     17  C   UNL     1     135.575 122.949 122.698  1.00  0.00    +0.016 A 
BRANCH  16  18
ATOM     18  C   UNL     1     135.198 121.938 124.991  1.00  0.00    +0.337 C 
ATOM     19  O   UNL     1     134.840 120.774 125.089  1.00  0.00    -0.246 OA
BRANCH  18  20
ATOM     20  O   UNL     1     135.989 122.600 125.871  1.00  0.00    -0.465 OA
ATOM     21  C   UNL     1     135.272 123.230 126.934  1.00  0.00    +0.282 C 
ENDBRANCH  18  20
ENDBRANCH  16  18
ENDBRANCH   1  12
TORSDOF 7
ENDMDL
MODEL 13
REMARK VINA RESULT:    -7.636      3.255      5.094
REMARK INTER + INTRA:         -11.452
REMARK INTER:                 -10.496
REMARK INTRA:                  -0.956
REMARK UNBOUND:                -0.691
REMARK SMILES COC(=O)c1cccc(CCN(C)Cc2ccccc2)c1
REMARK SMILES IDX 10 1 11 2 12 3 13 4 14 5 15 6 16 7 20 8 17 9 19 10 18 11
REMARK SMILES IDX 9 12 8 13 21 14 7 15 5 16 6 17 3 18 4 19 2 20 1 21
REMARK H PARENT
REMARK INDEX MAP 4 1 3 2 2 3 1 4 15 5 16 6 17 7 21 8 18 9 20 10 19 11 5 12
REMARK INDEX MAP 6 13 10 14 7 15 9 16 8 17 11 18 12 19 13 20 14 21
ROOT
ATOM      1  C   UNL     1     132.846 123.044 126.096  1.00  0.00    +0.051 C 
ENDROOT
BRANCH   1   2
ATOM      2  C   UNL     1     134.210 123.755 126.159  1.00  0.00    +0.089 C 
BRANCH   2   3
ATOM      3  N   UNL     1     135.261 123.270 125.244  1.00  0.00    -0.302 NA
ATOM      4  C   UNL     1     136.088 122.235 125.859  1.00  0.00    +0.105 C 
BRANCH   3   5
ATOM      5  C   UNL     1     134.757 122.819 123.936  1.00  0.00    +0.119 C 
BRANCH   5   6
ATOM      6  C   UNL     1     134.614 123.931 122.919  1.00  0.00    -0.034 A 
ATOM      7  C   UNL     1     133.347 124.439 122.596  1.00  0.00    +0.005 A 
ATOM      8  C   UNL     1     135.742 124.467 122.279  1.00  0.00    +0.005 A 
ATOM      9  C   UNL     1     133.210 125.457 121.651  1.00  0.00    +0.000 A 
ATOM     10  C   UNL     1     135.603 125.482 121.332  1.00  0.00    +0.000 A 
ATOM     11  C   UNL     1     134.338 125.977 121.019  1.00  0.00    +0.000 A 
ENDBRANCH   5   6
ENDBRANCH   3   5
ENDBRANCH   2   3
ENDBRANCH   1   2
BRANCH   1  12
ATOM     12  C   UNL     1     131.722 123.960 126.525  1.00  0.00    -0.046 A 
ATOM     13  C   UNL     1     130.548 123.440 127.082  1.00  0.00    +0.004 A 
ATOM     14  C   UNL     1     131.857 125.351 126.394  1.00  0.00    +0.019 A 
ATOM     15  C   UNL     1     129.522 124.293 127.492  1.00  0.00    +0.001 A 
ATOM     16  C   UNL     1     130.829 126.213 126.802  1.00  0.00    +0.060 A 
ATOM     17  C   UNL     1     129.659 125.675 127.352  1.00  0.00    +0.016 A 
BRANCH  16  18
ATOM     18  C   UNL     1     131.030 127.678 126.625  1.00  0.00    +0.337 C 
ATOM     19  O   UNL     1     130.345 128.369 125.888  1.00  0.00    -0.246 OA
BRANCH  18  20
ATOM     20  O   UNL     1     132.064 128.116 127.385  1.00  0.00    -0.465 OA
ATOM     21  C   UNL     1     131.673 128.618 128.663  1.00  0.00    +0.282 C 
ENDBRANCH  18  20
ENDBRANCH  16  18
ENDBRANCH   1  12
TORSDOF 7
ENDMDL
MODEL 14
REMARK VINA RESULT:    -7.609      3.557      6.964
REMARK INTER + INTRA:         -11.414
REMARK INTER:                 -10.308
REMARK INTRA:                  -1.105
REMARK UNBOUND:                -0.691
REMARK SMILES COC(=O)c1cccc(CCN(C)Cc2ccccc2)c1
REMARK SMILES IDX 10 1 11 2 12 3 13 4 14 5 15 6 16 7 20 8 17 9 19 10 18 11
REMARK SMILES IDX 9 12 8 13 21 14 7 15 5 16 6 17 3 18 4 19 2 20 1 21
REMARK H PARENT
REMARK INDEX MAP 4 1 3 2 2 3 1 4 15 5 16 6 17 7 21 8 18 9 20 10 19 11 5 12
REMARK INDEX MAP 6 13 10 14 7 15 9 16 8 17 11 18 12 19 13 20 14 21
ROOT
ATOM      1  C   UNL     1     133.461 126.087 121.747  1.00  0.00    +0.051 C 
ENDROOT
BRANCH   1   2
ATOM      2  C   UNL     1     132.392 125.482 122.675  1.00  0.00    +0.089 C 
BRANCH   2   3
ATOM      3  N   UNL     1     132.264 126.070 124.022  1.00  0.00    -0.302 NA
ATOM      4  C   UNL     1     130.874 126.375 124.357  1.00  0.00    +0.105 C 
BRANCH   3   5
ATOM      5  C   UNL     1     132.888 125.270 125.090  1.00  0.00    +0.119 C 
BRANCH   5   6
ATOM      6  C   UNL     1     134.401 125.307 125.075  1.00  0.00    -0.034 A 
ATOM      7  C   UNL     1     135.142 124.152 125.371  1.00  0.00    +0.005 A 
ATOM      8  C   UNL     1     135.088 126.493 124.773  1.00  0.00    +0.005 A 
ATOM      9  C   UNL     1     136.537 124.185 125.369  1.00  0.00    +0.000 A 
ATOM     10  C   UNL     1     136.482 126.524 124.776  1.00  0.00    +0.000 A 
ATOM     11  C   UNL     1     137.206 125.371 125.072  1.00  0.00    +0.000 A 
ENDBRANCH   5   6
ENDBRANCH   3   5
ENDBRANCH   2   3
ENDBRANCH   1   2
BRANCH   1  12
ATOM     12  C   UNL     1     134.279 125.013 121.067  1.00  0.00    -0.046 A 
ATOM     13  C   UNL     1     135.103 124.161 121.813  1.00  0.00    +0.004 A 
ATOM     14  C   UNL     1     134.199 124.840 119.677  1.00  0.00    +0.019 A 
ATOM     15  C   UNL     1     135.841 123.160 121.181  1.00  0.00    +0.001 A 
ATOM     16  C   UNL     1     134.940 123.837 119.036  1.00  0.00    +0.060 A 
ATOM     17  C   UNL     1     135.764 122.997 119.797  1.00  0.00    +0.016 A 
BRANCH  16  18
ATOM     18  C   UNL     1     134.820 123.713 117.556  1.00  0.00    +0.337 C 
ATOM     19  O   UNL     1     135.468 122.921 116.890  1.00  0.00    -0.246 OA
BRANCH  18  20
ATOM     20  O   UNL     1     133.908 124.593 117.074  1.00  0.00    -0.465 OA
ATOM     21  C   UNL     1     132.713 123.982 116.590  1.00  0.00    +0.282 C 
ENDBRANCH  18  20
ENDBRANCH  16  18
ENDBRANCH   1  12
TORSDOF 7
ENDMDL
MODEL 15
REMARK VINA RESULT:    -7.566      2.557      3.762
REMARK INTER + INTRA:         -11.353
REMARK INTER:                 -10.619
REMARK INTRA:                  -0.735
REMARK UNBOUND:                -0.691
REMARK SMILES COC(=O)c1cccc(CCN(C)Cc2ccccc2)c1
REMARK SMILES IDX 10 1 11 2 12 3 13 4 14 5 15 6 16 7 20 8 17 9 19 10 18 11
REMARK SMILES IDX 9 12 8 13 21 14 7 15 5 16 6 17 3 18 4 19 2 20 1 21
REMARK H PARENT
REMARK INDEX MAP 4 1 3 2 2 3 1 4 15 5 16 6 17 7 21 8 18 9 20 10 19 11 5 12
REMARK INDEX MAP 6 13 10 14 7 15 9 16 8 17 11 18 12 19 13 20 14 21
ROOT
ATOM      1  C   UNL     1     135.879 123.369 125.733  1.00  0.00    +0.051 C 
ENDROOT
BRANCH   1   2
ATOM      2  C   UNL     1     136.151 124.211 124.473  1.00  0.00    +0.089 C 
BRANCH   2   3
ATOM      3  N   UNL     1     136.348 125.660 124.665  1.00  0.00    -0.302 NA
ATOM      4  C   UNL     1     137.470 125.948 125.556  1.00  0.00    +0.105 C 
BRANCH   3   5
ATOM      5  C   UNL     1     136.476 126.420 123.411  1.00  0.00    +0.119 C 
BRANCH   5   6
ATOM      6  C   UNL     1     135.544 125.952 122.314  1.00  0.00    -0.034 A 
ATOM      7  C   UNL     1     134.154 126.057 122.471  1.00  0.00    +0.005 A 
ATOM      8  C   UNL     1     136.052 125.399 121.128  1.00  0.00    +0.005 A 
ATOM      9  C   UNL     1     133.291 125.615 121.466  1.00  0.00    +0.000 A 
ATOM     10  C   UNL     1     135.188 124.955 120.127  1.00  0.00    +0.000 A 
ATOM     11  C   UNL     1     133.809 125.064 120.295  1.00  0.00    +0.000 A 
ENDBRANCH   5   6
ENDBRANCH   3   5
ENDBRANCH   2   3
ENDBRANCH   1   2
BRANCH   1  12
ATOM     12  C   UNL     1     134.397 123.203 125.982  1.00  0.00    -0.046 A 
ATOM     13  C   UNL     1     133.837 121.929 126.138  1.00  0.00    +0.004 A 
ATOM     14  C   UNL     1     133.570 124.331 126.088  1.00  0.00    +0.019 A 
ATOM     15  C   UNL     1     132.471 121.784 126.385  1.00  0.00    +0.001 A 
ATOM     16  C   UNL     1     132.196 124.191 126.335  1.00  0.00    +0.060 A 
ATOM     17  C   UNL     1     131.651 122.910 126.482  1.00  0.00    +0.016 A 
BRANCH  16  18
ATOM     18  C   UNL     1     131.370 125.427 126.424  1.00  0.00    +0.337 C 
ATOM     19  O   UNL     1     130.429 125.557 127.191  1.00  0.00    -0.246 OA
BRANCH  18  20
ATOM     20  O   UNL     1     131.809 126.362 125.544  1.00  0.00    -0.465 OA
ATOM     21  C   UNL     1     130.942 126.558 124.427  1.00  0.00    +0.282 C 
ENDBRANCH  18  20
ENDBRANCH  16  18
ENDBRANCH   1  12
TORSDOF 7
ENDMDL
MODEL 16
REMARK VINA RESULT:    -7.547      3.388      8.180
REMARK INTER + INTRA:         -11.327
REMARK INTER:                 -10.840
REMARK INTRA:                  -0.487
REMARK UNBOUND:                -0.691
REMARK SMILES COC(=O)c1cccc(CCN(C)Cc2ccccc2)c1
REMARK SMILES IDX 10 1 11 2 12 3 13 4 14 5 15 6 16 7 20 8 17 9 19 10 18 11
REMARK SMILES IDX 9 12 8 13 21 14 7 15 5 16 6 17 3 18 4 19 2 20 1 21
REMARK H PARENT
REMARK INDEX MAP 4 1 3 2 2 3 1 4 15 5 16 6 17 7 21 8 18 9 20 10 19 11 5 12
REMARK INDEX MAP 6 13 10 14 7 15 9 16 8 17 11 18 12 19 13 20 14 21
ROOT
ATOM      1  C   UNL     1     133.063 125.621 122.466  1.00  0.00    +0.051 C 
ENDROOT
BRANCH   1   2
ATOM      2  C   UNL     1     132.264 124.645 123.350  1.00  0.00    +0.089 C 
BRANCH   2   3
ATOM      3  N   UNL     1     132.468 124.742 124.807  1.00  0.00    -0.302 NA
ATOM      4  C   UNL     1     133.586 123.916 125.261  1.00  0.00    +0.105 C 
BRANCH   3   5
ATOM      5  C   UNL     1     132.610 126.121 125.304  1.00  0.00    +0.119 C 
BRANCH   5   6
ATOM      6  C   UNL     1     131.602 126.492 126.371  1.00  0.00    -0.034 A 
ATOM      7  C   UNL     1     131.609 127.776 126.936  1.00  0.00    +0.005 A 
ATOM      8  C   UNL     1     130.652 125.561 126.817  1.00  0.00    +0.005 A 
ATOM      9  C   UNL     1     130.688 128.119 127.928  1.00  0.00    +0.000 A 
ATOM     10  C   UNL     1     129.736 125.904 127.811  1.00  0.00    +0.000 A 
ATOM     11  C   UNL     1     129.753 127.183 128.365  1.00  0.00    +0.000 A 
ENDBRANCH   5   6
ENDBRANCH   3   5
ENDBRANCH   2   3
ENDBRANCH   1   2
BRANCH   1  12
ATOM     12  C   UNL     1     134.066 124.892 121.600  1.00  0.00    -0.046 A 
ATOM     13  C   UNL     1     135.146 124.211 122.175  1.00  0.00    +0.004 A 
ATOM     14  C   UNL     1     133.907 124.867 120.206  1.00  0.00    +0.019 A 
ATOM     15  C   UNL     1     136.057 123.526 121.371  1.00  0.00    +0.001 A 
ATOM     16  C   UNL     1     134.821 124.181 119.393  1.00  0.00    +0.060 A 
ATOM     17  C   UNL     1     135.899 123.511 119.985  1.00  0.00    +0.016 A 
BRANCH  16  18
ATOM     18  C   UNL     1     134.603 124.203 117.920  1.00  0.00    +0.337 C 
ATOM     19  O   UNL     1     133.720 124.847 117.377  1.00  0.00    -0.246 OA
BRANCH  18  20
ATOM     20  O   UNL     1     135.510 123.415 117.290  1.00  0.00    -0.465 OA
ATOM     21  C   UNL     1     134.927 122.381 116.497  1.00  0.00    +0.282 C 
ENDBRANCH  18  20
ENDBRANCH  16  18
ENDBRANCH   1  12
TORSDOF 7
ENDMDL
MODEL 17
REMARK VINA RESULT:    -7.540      3.005      6.495
REMARK INTER + INTRA:         -11.317
REMARK INTER:                 -10.146
REMARK INTRA:                  -1.171
REMARK UNBOUND:                -0.691
REMARK SMILES COC(=O)c1cccc(CCN(C)Cc2ccccc2)c1
REMARK SMILES IDX 10 1 11 2 12 3 13 4 14 5 15 6 16 7 20 8 17 9 19 10 18 11
REMARK SMILES IDX 9 12 8 13 21 14 7 15 5 16 6 17 3 18 4 19 2 20 1 21
REMARK H PARENT
REMARK INDEX MAP 4 1 3 2 2 3 1 4 15 5 16 6 17 7 21 8 18 9 20 10 19 11 5 12
REMARK INDEX MAP 6 13 10 14 7 15 9 16 8 17 11 18 12 19 13 20 14 21
ROOT
ATOM      1  C   UNL     1     132.994 125.804 125.228  1.00  0.00    +0.051 C 
ENDROOT
BRANCH   1   2
ATOM      2  C   UNL     1     133.109 124.701 126.296  1.00  0.00    +0.089 C 
BRANCH   2   3
ATOM      3  N   UNL     1     132.082 123.643 126.280  1.00  0.00    -0.302 NA
ATOM      4  C   UNL     1     130.813 124.119 125.733  1.00  0.00    +0.105 C 
BRANCH   3   5
ATOM      5  C   UNL     1     132.504 122.406 125.602  1.00  0.00    +0.119 C 
BRANCH   5   6
ATOM      6  C   UNL     1     133.986 122.121 125.716  1.00  0.00    -0.034 A 
ATOM      7  C   UNL     1     134.554 121.805 126.959  1.00  0.00    +0.005 A 
ATOM      8  C   UNL     1     134.816 122.176 124.586  1.00  0.00    +0.005 A 
ATOM      9  C   UNL     1     135.923 121.554 127.070  1.00  0.00    +0.000 A 
ATOM     10  C   UNL     1     136.184 121.927 124.700  1.00  0.00    +0.000 A 
ATOM     11  C   UNL     1     136.737 121.616 125.941  1.00  0.00    +0.000 A 
ENDBRANCH   5   6
ENDBRANCH   3   5
ENDBRANCH   2   3
ENDBRANCH   1   2
BRANCH   1  12
ATOM     12  C   UNL     1     134.139 125.745 124.242  1.00  0.00    -0.046 A 
ATOM     13  C   UNL     1     135.373 126.333 124.542  1.00  0.00    +0.004 A 
ATOM     14  C   UNL     1     133.983 125.070 123.021  1.00  0.00    +0.019 A 
ATOM     15  C   UNL     1     136.431 126.259 123.635  1.00  0.00    +0.001 A 
ATOM     16  C   UNL     1     135.042 124.994 122.104  1.00  0.00    +0.060 A 
ATOM     17  C   UNL     1     136.268 125.594 122.419  1.00  0.00    +0.016 A 
BRANCH  16  18
ATOM     18  C   UNL     1     134.809 124.275 120.821  1.00  0.00    +0.337 C 
ATOM     19  O   UNL     1     135.290 123.183 120.562  1.00  0.00    -0.246 OA
BRANCH  18  20
ATOM     20  O   UNL     1     134.003 124.999 120.005  1.00  0.00    -0.465 OA
ATOM     21  C   UNL     1     134.388 124.963 118.631  1.00  0.00    +0.282 C 
ENDBRANCH  18  20
ENDBRANCH  16  18
ENDBRANCH   1  12
TORSDOF 7
ENDMDL
MODEL 18
REMARK VINA RESULT:    -7.496      3.108      5.429
REMARK INTER + INTRA:         -11.255
REMARK INTER:                 -10.744
REMARK INTRA:                  -0.511
REMARK UNBOUND:                -0.691
REMARK SMILES COC(=O)c1cccc(CCN(C)Cc2ccccc2)c1
REMARK SMILES IDX 10 1 11 2 12 3 13 4 14 5 15 6 16 7 20 8 17 9 19 10 18 11
REMARK SMILES IDX 9 12 8 13 21 14 7 15 5 16 6 17 3 18 4 19 2 20 1 21
REMARK H PARENT
REMARK INDEX MAP 4 1 3 2 2 3 1 4 15 5 16 6 17 7 21 8 18 9 20 10 19 11 5 12
REMARK INDEX MAP 6 13 10 14 7 15 9 16 8 17 11 18 12 19 13 20 14 21
ROOT
ATOM      1  C   UNL     1     131.496 123.331 126.335  1.00  0.00    +0.051 C 
ENDROOT
BRANCH   1   2
ATOM      2  C   UNL     1     132.808 124.094 126.077  1.00  0.00    +0.089 C 
BRANCH   2   3
ATOM      3  N   UNL     1     133.237 124.232 124.672  1.00  0.00    -0.302 NA
ATOM      4  C   UNL     1     132.352 125.111 123.912  1.00  0.00    +0.105 C 
BRANCH   3   5
ATOM      5  C   UNL     1     134.641 124.648 124.511  1.00  0.00    +0.119 C 
BRANCH   5   6
ATOM      6  C   UNL     1     135.182 124.442 123.113  1.00  0.00    -0.034 A 
ATOM      7  C   UNL     1     135.140 123.174 122.515  1.00  0.00    +0.005 A 
ATOM      8  C   UNL     1     135.741 125.511 122.396  1.00  0.00    +0.005 A 
ATOM      9  C   UNL     1     135.648 122.978 121.230  1.00  0.00    +0.000 A 
ATOM     10  C   UNL     1     136.252 125.313 121.113  1.00  0.00    +0.000 A 
ATOM     11  C   UNL     1     136.205 124.048 120.530  1.00  0.00    +0.000 A 
ENDBRANCH   5   6
ENDBRANCH   3   5
ENDBRANCH   2   3
ENDBRANCH   1   2
BRANCH   1  12
ATOM     12  C   UNL     1     130.477 124.199 127.039  1.00  0.00    -0.046 A 
ATOM     13  C   UNL     1     129.303 123.645 127.561  1.00  0.00    +0.004 A 
ATOM     14  C   UNL     1     130.714 125.573 127.200  1.00  0.00    +0.019 A 
ATOM     15  C   UNL     1     128.376 124.449 128.225  1.00  0.00    +0.001 A 
ATOM     16  C   UNL     1     129.785 126.387 127.865  1.00  0.00    +0.060 A 
ATOM     17  C   UNL     1     128.613 125.816 128.376  1.00  0.00    +0.016 A 
BRANCH  16  18
ATOM     18  C   UNL     1     130.090 127.839 127.993  1.00  0.00    +0.337 C 
ATOM     19  O   UNL     1     129.749 128.676 127.172  1.00  0.00    -0.246 OA
BRANCH  18  20
ATOM     20  O   UNL     1     130.788 128.084 129.129  1.00  0.00    -0.465 OA
ATOM     21  C   UNL     1     131.935 128.913 128.937  1.00  0.00    +0.282 C 
ENDBRANCH  18  20
ENDBRANCH  16  18
ENDBRANCH   1  12
TORSDOF 7
ENDMDL
MODEL 19
REMARK VINA RESULT:    -7.320      1.978      4.140
REMARK INTER + INTRA:         -11.006
REMARK INTER:                  -9.050
REMARK INTRA:                  -1.956
REMARK UNBOUND:                -0.691
REMARK SMILES COC(=O)c1cccc(CCN(C)Cc2ccccc2)c1
REMARK SMILES IDX 10 1 11 2 12 3 13 4 14 5 15 6 16 7 20 8 17 9 19 10 18 11
REMARK SMILES IDX 9 12 8 13 21 14 7 15 5 16 6 17 3 18 4 19 2 20 1 21
REMARK H PARENT
REMARK INDEX MAP 4 1 3 2 2 3 1 4 15 5 16 6 17 7 21 8 18 9 20 10 19 11 5 12
REMARK INDEX MAP 6 13 10 14 7 15 9 16 8 17 11 18 12 19 13 20 14 21
ROOT
ATOM      1  C   UNL     1     135.066 122.767 121.883  1.00  0.00    +0.051 C 
ENDROOT
BRANCH   1   2
ATOM      2  C   UNL     1     136.393 123.442 121.494  1.00  0.00    +0.089 C 
BRANCH   2   3
ATOM      3  N   UNL     1     136.314 124.604 120.588  1.00  0.00    -0.302 NA
ATOM      4  C   UNL     1     135.074 124.614 119.816  1.00  0.00    +0.105 C 
BRANCH   3   5
ATOM      5  C   UNL     1     136.517 125.901 121.255  1.00  0.00    +0.119 C 
BRANCH   5   6
ATOM      6  C   UNL     1     136.004 125.944 122.678  1.00  0.00    -0.034 A 
ATOM      7  C   UNL     1     136.879 125.737 123.755  1.00  0.00    +0.005 A 
ATOM      8  C   UNL     1     134.647 126.183 122.945  1.00  0.00    +0.005 A 
ATOM      9  C   UNL     1     136.408 125.765 125.068  1.00  0.00    +0.000 A 
ATOM     10  C   UNL     1     134.177 126.206 124.258  1.00  0.00    +0.000 A 
ATOM     11  C   UNL     1     135.057 125.998 125.319  1.00  0.00    +0.000 A 
ENDBRANCH   5   6
ENDBRANCH   3   5
ENDBRANCH   2   3
ENDBRANCH   1   2
BRANCH   1  12
ATOM     12  C   UNL     1     134.972 122.544 123.375  1.00  0.00    -0.046 A 
ATOM     13  C   UNL     1     136.097 122.154 124.112  1.00  0.00    +0.004 A 
ATOM     14  C   UNL     1     133.757 122.753 124.045  1.00  0.00    +0.019 A 
ATOM     15  C   UNL     1     136.008 121.967 125.492  1.00  0.00    +0.001 A 
ATOM     16  C   UNL     1     133.660 122.565 125.431  1.00  0.00    +0.060 A 
ATOM     17  C   UNL     1     134.795 122.169 126.152  1.00  0.00    +0.016 A 
BRANCH  16  18
ATOM     18  C   UNL     1     132.339 122.791 126.080  1.00  0.00    +0.337 C 
ATOM     19  O   UNL     1     131.793 121.974 126.804  1.00  0.00    -0.246 OA
BRANCH  18  20
ATOM     20  O   UNL     1     131.846 124.011 125.751  1.00  0.00    -0.465 OA
ATOM     21  C   UNL     1     130.667 124.373 126.470  1.00  0.00    +0.282 C 
ENDBRANCH  18  20
ENDBRANCH  16  18
ENDBRANCH   1  12
TORSDOF 7
ENDMDL
MODEL 20
REMARK VINA RESULT:    -7.135      2.167      3.369
REMARK INTER + INTRA:         -10.745
REMARK INTER:                 -10.229
REMARK INTRA:                  -0.516
REMARK UNBOUND:                -0.691
REMARK SMILES COC(=O)c1cccc(CCN(C)Cc2ccccc2)c1
REMARK SMILES IDX 10 1 11 2 12 3 13 4 14 5 15 6 16 7 20 8 17 9 19 10 18 11
REMARK SMILES IDX 9 12 8 13 21 14 7 15 5 16 6 17 3 18 4 19 2 20 1 21
REMARK H PARENT
REMARK INDEX MAP 4 1 3 2 2 3 1 4 15 5 16 6 17 7 21 8 18 9 20 10 19 11 5 12
REMARK INDEX MAP 6 13 10 14 7 15 9 16 8 17 11 18 12 19 13 20 14 21
ROOT
ATOM      1  C   UNL     1     133.875 123.891 124.157  1.00  0.00    +0.051 C 
ENDROOT
BRANCH   1   2
ATOM      2  C   UNL     1     133.773 124.945 123.039  1.00  0.00    +0.089 C 
BRANCH   2   3
ATOM      3  N   UNL     1     134.830 125.973 122.989  1.00  0.00    -0.302 NA
ATOM      4  C   UNL     1     135.314 126.327 124.322  1.00  0.00    +0.105 C 
BRANCH   3   5
ATOM      5  C   UNL     1     135.956 125.634 122.103  1.00  0.00    +0.119 C 
BRANCH   5   6
ATOM      6  C   UNL     1     135.541 124.938 120.825  1.00  0.00    -0.034 A 
ATOM      7  C   UNL     1     135.941 123.617 120.575  1.00  0.00    +0.005 A 
ATOM      8  C   UNL     1     134.757 125.601 119.869  1.00  0.00    +0.005 A 
ATOM      9  C   UNL     1     135.570 122.975 119.392  1.00  0.00    +0.000 A 
ATOM     10  C   UNL     1     134.390 124.960 118.686  1.00  0.00    +0.000 A 
ATOM     11  C   UNL     1     134.795 123.648 118.448  1.00  0.00    +0.000 A 
ENDBRANCH   5   6
ENDBRANCH   3   5
ENDBRANCH   2   3
ENDBRANCH   1   2
BRANCH   1  12
ATOM     12  C   UNL     1     132.661 123.917 125.058  1.00  0.00    -0.046 A 
ATOM     13  C   UNL     1     132.456 122.914 126.012  1.00  0.00    +0.004 A 
ATOM     14  C   UNL     1     131.737 124.970 124.965  1.00  0.00    +0.019 A 
ATOM     15  C   UNL     1     131.342 122.954 126.852  1.00  0.00    +0.001 A 
ATOM     16  C   UNL     1     130.615 125.015 125.805  1.00  0.00    +0.060 A 
ATOM     17  C   UNL     1     130.423 123.999 126.750  1.00  0.00    +0.016 A 
BRANCH  16  18
ATOM     18  C   UNL     1     129.666 126.152 125.648  1.00  0.00    +0.337 C 
ATOM     19  O   UNL     1     128.532 126.030 125.215  1.00  0.00    -0.246 OA
BRANCH  18  20
ATOM     20  O   UNL     1     130.241 127.314 126.047  1.00  0.00    -0.465 OA
ATOM     21  C   UNL     1     130.010 127.634 127.419  1.00  0.00    +0.282 C 
ENDBRANCH  18  20
ENDBRANCH  16  18
ENDBRANCH   1  12
TORSDOF 7
ENDMDL
