MODEL 1
REMARK VINA RESULT:    -7.263      0.000      0.000
REMARK INTER + INTRA:         -12.809
REMARK INTER:                 -10.235
REMARK INTRA:                  -2.574
REMARK UNBOUND:                -2.574
REMARK SMILES COC(=O)c1cccc(CCN(C)Cc2ccccc2)c1
REMARK SMILES IDX 10 1 11 2 12 3 13 4 14 5 15 6 16 7 20 8 17 9 19 10 18 11
REMARK SMILES IDX 9 12 8 13 21 14 7 15 5 16 6 17 3 18 4 19 2 20 1 21
REMARK H PARENT
REMARK INDEX MAP 4 1 3 2 2 3 1 4 15 5 16 6 17 7 21 8 18 9 20 10 19 11 5 12
REMARK INDEX MAP 6 13 10 14 7 15 9 16 8 17 11 18 12 19 13 20 14 21
ROOT
ATOM      1  C   UNL     1     136.046 121.805 125.034  1.00  0.00    +0.051 C 
ENDROOT
BRANCH   1   2
ATOM      2  C   UNL     1     135.140 121.977 126.268  1.00  0.00    +0.089 C 
BRANCH   2   3
ATOM      3  N   UNL     1     133.686 122.041 126.027  1.00  0.00    -0.302 NA
ATOM      4  C   UNL     1     132.966 120.982 126.732  1.00  0.00    +0.105 C 
BRANCH   3   5
ATOM      5  C   UNL     1     133.087 123.354 126.318  1.00  0.00    +0.119 C 
BRANCH   5   6
ATOM      6  C   UNL     1     132.839 124.199 125.087  1.00  0.00    -0.034 A 
ATOM      7  C   UNL     1     132.434 123.599 123.885  1.00  0.00    +0.005 A 
ATOM      8  C   UNL     1     133.016 125.590 125.123  1.00  0.00    +0.005 A 
ATOM      9  C   UNL     1     132.215 124.374 122.744  1.00  0.00    +0.000 A 
ATOM     10  C   UNL     1     132.801 126.362 123.981  1.00  0.00    +0.000 A 
ATOM     11  C   UNL     1     132.400 125.754 122.793  1.00  0.00    +0.000 A 
ENDBRANCH   5   6
ENDBRANCH   3   5
ENDBRANCH   2   3
ENDBRANCH   1   2
BRANCH   1  12
ATOM     12  C   UNL     1     136.092 123.066 124.200  1.00  0.00    -0.046 A 
ATOM     13  C   UNL     1     136.461 124.289 124.773  1.00  0.00    +0.004 A 
ATOM     14  C   UNL     1     135.793 123.016 122.830  1.00  0.00    +0.019 A 
ATOM     15  C   UNL     1     136.519 125.445 123.993  1.00  0.00    +0.001 A 
ATOM     16  C   UNL     1     135.849 124.174 122.042  1.00  0.00    +0.060 A 
ATOM     17  C   UNL     1     136.213 125.391 122.632  1.00  0.00    +0.016 A 
BRANCH  16  18
ATOM     18  C   UNL     1     135.508 124.057 120.597  1.00  0.00    +0.337 C 
ATOM     19  O   UNL     1     135.817 123.099 119.905  1.00  0.00    -0.246 OA
BRANCH  18  20
ATOM     20  O   UNL     1     134.822 125.148 120.176  1.00  0.00    -0.465 OA
ATOM     21  C   UNL     1     134.375 125.065 118.823  1.00  0.00    +0.282 C 
ENDBRANCH  18  20
ENDBRANCH  16  18
ENDBRANCH   1  12
TORSDOF 7
ENDMDL
MODEL 2
REMARK VINA RESULT:    -7.147      3.214      6.048
REMARK INTER + INTRA:         -12.646
REMARK INTER:                 -10.451
REMARK INTRA:                  -2.195
REMARK UNBOUND:                -2.574
REMARK SMILES COC(=O)c1cccc(CCN(C)Cc2ccccc2)c1
REMARK SMILES IDX 10 1 11 2 12 3 13 4 14 5 15 6 16 7 20 8 17 9 19 10 18 11
REMARK SMILES IDX 9 12 8 13 21 14 7 15 5 16 6 17 3 18 4 19 2 20 1 21
REMARK H PARENT
REMARK INDEX MAP 4 1 3 2 2 3 1 4 15 5 16 6 17 7 21 8 18 9 20 10 19 11 5 12
REMARK INDEX MAP 6 13 10 14 7 15 9 16 8 17 11 18 12 19 13 20 14 21
ROOT
ATOM      1  C   UNL     1     132.750 124.422 122.742  1.00  0.00    +0.051 C 
ENDROOT
BRANCH   1   2
ATOM      2  C   UNL     1     134.027 125.276 122.634  1.00  0.00    +0.089 C 
BRANCH   2   3
ATOM      3  N   UNL     1     135.304 124.555 122.478  1.00  0.00    -0.302 NA
ATOM      4  C   UNL     1     136.098 125.078 121.368  1.00  0.00    +0.105 C 
BRANCH   3   5
ATOM      5  C   UNL     1     136.113 124.492 123.707  1.00  0.00    +0.119 C 
BRANCH   5   6
ATOM      6  C   UNL     1     135.623 123.468 124.709  1.00  0.00    -0.034 A 
ATOM      7  C   UNL     1     135.431 122.133 124.322  1.00  0.00    +0.005 A 
ATOM      8  C   UNL     1     135.348 123.836 126.034  1.00  0.00    +0.005 A 
ATOM      9  C   UNL     1     134.969 121.188 125.241  1.00  0.00    +0.000 A 
ATOM     10  C   UNL     1     134.882 122.892 126.950  1.00  0.00    +0.000 A 
ATOM     11  C   UNL     1     134.694 121.569 126.553  1.00  0.00    +0.000 A 
ENDBRANCH   5   6
ENDBRANCH   3   5
ENDBRANCH   2   3
ENDBRANCH   1   2
BRANCH   1  12
ATOM     12  C   UNL     1     132.181 124.449 124.142  1.00  0.00    -0.046 A 
ATOM     13  C   UNL     1     131.812 123.263 124.787  1.00  0.00    +0.004 A 
ATOM     14  C   UNL     1     132.043 125.668 124.823  1.00  0.00    +0.019 A 
ATOM     15  C   UNL     1     131.304 123.294 126.087  1.00  0.00    +0.001 A 
ATOM     16  C   UNL     1     131.531 125.706 126.128  1.00  0.00    +0.060 A 
ATOM     17  C   UNL     1     131.161 124.510 126.756  1.00  0.00    +0.016 A 
BRANCH  16  18
ATOM     18  C   UNL     1     131.398 127.032 126.792  1.00  0.00    +0.337 C 
ATOM     19  O   UNL     1     132.210 127.936 126.665  1.00  0.00    -0.246 OA
BRANCH  18  20
ATOM     20  O   UNL     1     130.269 127.082 127.541  1.00  0.00    -0.465 OA
ATOM     21  C   UNL     1     129.348 128.094 127.134  1.00  0.00    +0.282 C 
ENDBRANCH  18  20
ENDBRANCH  16  18
ENDBRANCH   1  12
TORSDOF 7
ENDMDL
MODEL 3
REMARK VINA RESULT:    -7.113      1.726      3.952
REMARK INTER + INTRA:         -12.598
REMARK INTER:                 -11.280
REMARK INTRA:                  -1.318
REMARK UNBOUND:                -2.574
REMARK SMILES COC(=O)c1cccc(CCN(C)Cc2ccccc2)c1
REMARK SMILES IDX 10 1 11 2 12 3 13 4 14 5 15 6 16 7 20 8 17 9 19 10 18 11
REMARK SMILES IDX 9 12 8 13 21 14 7 15 5 16 6 17 3 18 4 19 2 20 1 21
REMARK H PARENT
REMARK INDEX MAP 4 1 3 2 2 3 1 4 15 5 16 6 17 7 21 8 18 9 20 10 19 11 5 12
REMARK INDEX MAP 6 13 10 14 7 15 9 16 8 17 11 18 12 19 13 20 14 21
ROOT
ATOM      1  C   UNL     1     132.878 125.884 122.829  1.00  0.00    +0.051 C 
ENDROOT
BRANCH   1   2
ATOM      2  C   UNL     1     132.205 125.148 124.003  1.00  0.00    +0.089 C 
BRANCH   2   3
ATOM      3  N   UNL     1     132.684 125.473 125.360  1.00  0.00    -0.302 NA
ATOM      4  C   UNL     1     131.995 126.632 125.921  1.00  0.00    +0.105 C 
BRANCH   3   5
ATOM      5  C   UNL     1     132.639 124.340 126.300  1.00  0.00    +0.119 C 
BRANCH   5   6
ATOM      6  C   UNL     1     133.718 123.306 126.062  1.00  0.00    -0.034 A 
ATOM      7  C   UNL     1     135.071 123.642 126.218  1.00  0.00    +0.005 A 
ATOM      8  C   UNL     1     133.385 121.998 125.676  1.00  0.00    +0.005 A 
ATOM      9  C   UNL     1     136.069 122.693 125.989  1.00  0.00    +0.000 A 
ATOM     10  C   UNL     1     134.384 121.052 125.443  1.00  0.00    +0.000 A 
ATOM     11  C   UNL     1     135.725 121.400 125.601  1.00  0.00    +0.000 A 
ENDBRANCH   5   6
ENDBRANCH   3   5
ENDBRANCH   2   3
ENDBRANCH   1   2
BRANCH   1  12
ATOM     12  C   UNL     1     133.776 124.962 122.036  1.00  0.00    -0.046 A 
ATOM     13  C   UNL     1     134.515 123.959 122.676  1.00  0.00    +0.004 A 
ATOM     14  C   UNL     1     133.855 125.084 120.641  1.00  0.00    +0.019 A 
ATOM     15  C   UNL     1     135.329 123.100 121.935  1.00  0.00    +0.001 A 
ATOM     16  C   UNL     1     134.672 124.224 119.892  1.00  0.00    +0.060 A 
ATOM     17  C   UNL     1     135.410 123.231 120.548  1.00  0.00    +0.016 A 
BRANCH  16  18
ATOM     18  C   UNL     1     134.722 124.414 118.415  1.00  0.00    +0.337 C 
ATOM     19  O   UNL     1     134.261 125.389 117.843  1.00  0.00    -0.246 OA
BRANCH  18  20
ATOM     20  O   UNL     1     135.338 123.364 117.818  1.00  0.00    -0.465 OA
ATOM     21  C   UNL     1     134.577 122.766 116.768  1.00  0.00    +0.282 C 
ENDBRANCH  18  20
ENDBRANCH  16  18
ENDBRANCH   1  12
TORSDOF 7
ENDMDL
MODEL 4
REMARK VINA RESULT:    -6.921      3.125      6.156
REMARK INTER + INTRA:         -12.327
REMARK INTER:                 -10.350
REMARK INTRA:                  -1.977
REMARK UNBOUND:                -2.574
REMARK SMILES COC(=O)c1cccc(CCN(C)Cc2ccccc2)c1
REMARK SMILES IDX 10 1 11 2 12 3 13 4 14 5 15 6 16 7 20 8 17 9 19 10 18 11
REMARK SMILES IDX 9 12 8 13 21 14 7 15 5 16 6 17 3 18 4 19 2 20 1 21
REMARK H PARENT
REMARK INDEX MAP 4 1 3 2 2 3 1 4 15 5 16 6 17 7 21 8 18 9 20 10 19 11 5 12
REMARK INDEX MAP 6 13 10 14 7 15 9 16 8 17 11 18 12 19 13 20 14 21
ROOT
ATOM      1  C   UNL     1     132.269 124.820 122.102  1.00  0.00    +0.051 C 
ENDROOT
BRANCH   1   2
ATOM      2  C   UNL     1     133.442 125.653 121.554  1.00  0.00    +0.089 C 
BRANCH   2   3
ATOM      3  N   UNL     1     134.520 124.919 120.864  1.00  0.00    -0.302 NA
ATOM      4  C   UNL     1     134.577 125.239 119.439  1.00  0.00    +0.105 C 
BRANCH   3   5
ATOM      5  C   UNL     1     135.847 125.078 121.482  1.00  0.00    +0.119 C 
BRANCH   5   6
ATOM      6  C   UNL     1     135.991 124.367 122.810  1.00  0.00    -0.034 A 
ATOM      7  C   UNL     1     136.148 125.101 123.995  1.00  0.00    +0.005 A 
ATOM      8  C   UNL     1     135.979 122.965 122.879  1.00  0.00    +0.005 A 
ATOM      9  C   UNL     1     136.293 124.448 125.221  1.00  0.00    +0.000 A 
ATOM     10  C   UNL     1     136.128 122.314 124.104  1.00  0.00    +0.000 A 
ATOM     11  C   UNL     1     136.283 123.055 125.274  1.00  0.00    +0.000 A 
ENDBRANCH   5   6
ENDBRANCH   3   5
ENDBRANCH   2   3
ENDBRANCH   1   2
BRANCH   1  12
ATOM     12  C   UNL     1     132.277 124.775 123.613  1.00  0.00    -0.046 A 
ATOM     13  C   UNL     1     132.651 123.609 124.292  1.00  0.00    +0.004 A 
ATOM     14  C   UNL     1     131.937 125.918 124.354  1.00  0.00    +0.019 A 
ATOM     15  C   UNL     1     132.674 123.581 125.687  1.00  0.00    +0.001 A 
ATOM     16  C   UNL     1     131.956 125.894 125.756  1.00  0.00    +0.060 A 
ATOM     17  C   UNL     1     132.326 124.717 126.419  1.00  0.00    +0.016 A 
BRANCH  16  18
ATOM     18  C   UNL     1     131.573 127.136 126.483  1.00  0.00    +0.337 C 
ATOM     19  O   UNL     1     132.326 128.082 126.650  1.00  0.00    -0.246 OA
BRANCH  18  20
ATOM     20  O   UNL     1     130.293 127.057 126.924  1.00  0.00    -0.465 OA
ATOM     21  C   UNL     1     129.574 128.287 126.841  1.00  0.00    +0.282 C 
ENDBRANCH  18  20
ENDBRANCH  16  18
ENDBRANCH   1  12
TORSDOF 7
ENDMDL
MODEL 5
REMARK VINA RESULT:    -6.903      1.511      3.616
REMARK INTER + INTRA:         -12.302
REMARK INTER:                 -11.054
REMARK INTRA:                  -1.247
REMARK UNBOUND:                -2.574
REMARK SMILES COC(=O)c1cccc(CCN(C)Cc2ccccc2)c1
REMARK SMILES IDX 10 1 11 2 12 3 13 4 14 5 15 6 16 7 20 8 17 9 19 10 18 11
REMARK SMILES IDX 9 12 8 13 21 14 7 15 5 16 6 17 3 18 4 19 2 20 1 21
REMARK H PARENT
REMARK INDEX MAP 4 1 3 2 2 3 1 4 15 5 16 6 17 7 21 8 18 9 20 10 19 11 5 12
REMARK INDEX MAP 6 13 10 14 7 15 9 16 8 17 11 18 12 19 13 20 14 21
ROOT
ATOM      1  C   UNL     1     132.298 125.569 123.014  1.00  0.00    +0.051 C 
ENDROOT
BRANCH   1   2
ATOM      2  C   UNL     1     132.498 126.029 124.470  1.00  0.00    +0.089 C 
BRANCH   2   3
ATOM      3  N   UNL     1     132.488 124.983 125.510  1.00  0.00    -0.302 NA
ATOM      4  C   UNL     1     131.349 125.120 126.415  1.00  0.00    +0.105 C 
BRANCH   3   5
ATOM      5  C   UNL     1     132.566 123.610 124.982  1.00  0.00    +0.119 C 
BRANCH   5   6
ATOM      6  C   UNL     1     133.891 122.928 125.248  1.00  0.00    -0.034 A 
ATOM      7  C   UNL     1     134.775 122.660 124.192  1.00  0.00    +0.005 A 
ATOM      8  C   UNL     1     134.254 122.547 126.549  1.00  0.00    +0.005 A 
ATOM      9  C   UNL     1     135.993 122.021 124.432  1.00  0.00    +0.000 A 
ATOM     10  C   UNL     1     135.470 121.905 126.786  1.00  0.00    +0.000 A 
ATOM     11  C   UNL     1     136.339 121.643 125.728  1.00  0.00    +0.000 A 
ENDBRANCH   5   6
ENDBRANCH   3   5
ENDBRANCH   2   3
ENDBRANCH   1   2
BRANCH   1  12
ATOM     12  C   UNL     1     133.608 125.531 122.259  1.00  0.00    -0.046 A 
ATOM     13  C   UNL     1     134.762 126.113 122.798  1.00  0.00    +0.004 A 
ATOM     14  C   UNL     1     133.687 124.883 121.017  1.00  0.00    +0.019 A 
ATOM     15  C   UNL     1     135.971 126.058 122.104  1.00  0.00    +0.001 A 
ATOM     16  C   UNL     1     134.899 124.826 120.314  1.00  0.00    +0.060 A 
ATOM     17  C   UNL     1     136.042 125.419 120.865  1.00  0.00    +0.016 A 
BRANCH  16  18
ATOM     18  C   UNL     1     134.914 124.135 118.995  1.00  0.00    +0.337 C 
ATOM     19  O   UNL     1     135.465 123.063 118.800  1.00  0.00    -0.246 OA
BRANCH  18  20
ATOM     20  O   UNL     1     134.241 124.859 118.067  1.00  0.00    -0.465 OA
ATOM     21  C   UNL     1     133.464 124.069 117.167  1.00  0.00    +0.282 C 
ENDBRANCH  18  20
ENDBRANCH  16  18
ENDBRANCH   1  12
TORSDOF 7
ENDMDL
MODEL 6
REMARK VINA RESULT:    -6.732      1.606      2.689
REMARK INTER + INTRA:         -12.061
REMARK INTER:                 -11.072
REMARK INTRA:                  -0.989
REMARK UNBOUND:                -2.574
REMARK SMILES COC(=O)c1cccc(CCN(C)Cc2ccccc2)c1
REMARK SMILES IDX 10 1 11 2 12 3 13 4 14 5 15 6 16 7 20 8 17 9 19 10 18 11
REMARK SMILES IDX 9 12 8 13 21 14 7 15 5 16 6 17 3 18 4 19 2 20 1 21
REMARK H PARENT
REMARK INDEX MAP 4 1 3 2 2 3 1 4 15 5 16 6 17 7 21 8 18 9 20 10 19 11 5 12
REMARK INDEX MAP 6 13 10 14 7 15 9 16 8 17 11 18 12 19 13 20 14 21
ROOT
ATOM      1  C   UNL     1     135.975 122.790 123.080  1.00  0.00    +0.051 C 
ENDROOT
BRANCH   1   2
ATOM      2  C   UNL     1     136.094 123.278 124.535  1.00  0.00    +0.089 C 
BRANCH   2   3
ATOM      3  N   UNL     1     135.499 122.422 125.580  1.00  0.00    -0.302 NA
ATOM      4  C   UNL     1     136.447 121.430 126.082  1.00  0.00    +0.105 C 
BRANCH   3   5
ATOM      5  C   UNL     1     134.894 123.169 126.695  1.00  0.00    +0.119 C 
BRANCH   5   6
ATOM      6  C   UNL     1     133.494 123.669 126.408  1.00  0.00    -0.034 A 
ATOM      7  C   UNL     1     132.406 122.785 126.431  1.00  0.00    +0.005 A 
ATOM      8  C   UNL     1     133.263 125.020 126.106  1.00  0.00    +0.005 A 
ATOM      9  C   UNL     1     131.115 123.240 126.155  1.00  0.00    +0.000 A 
ATOM     10  C   UNL     1     131.973 125.473 125.827  1.00  0.00    +0.000 A 
ATOM     11  C   UNL     1     130.900 124.584 125.853  1.00  0.00    +0.000 A 
ENDBRANCH   5   6
ENDBRANCH   3   5
ENDBRANCH   2   3
ENDBRANCH   1   2
BRANCH   1  12
ATOM     12  C   UNL     1     135.219 123.779 122.222  1.00  0.00    -0.046 A 
ATOM     13  C   UNL     1     134.495 124.825 122.806  1.00  0.00    +0.004 A 
ATOM     14  C   UNL     1     135.259 123.674 120.823  1.00  0.00    +0.019 A 
ATOM     15  C   UNL     1     133.814 125.745 122.007  1.00  0.00    +0.001 A 
ATOM     16  C   UNL     1     134.576 124.594 120.015  1.00  0.00    +0.060 A 
ATOM     17  C   UNL     1     133.852 125.631 120.616  1.00  0.00    +0.016 A 
BRANCH  16  18
ATOM     18  C   UNL     1     134.649 124.420 118.538  1.00  0.00    +0.337 C 
ATOM     19  O   UNL     1     134.263 125.260 117.739  1.00  0.00    -0.246 OA
BRANCH  18  20
ATOM     20  O   UNL     1     135.191 123.218 118.223  1.00  0.00    -0.465 OA
ATOM     21  C   UNL     1     134.606 122.602 117.076  1.00  0.00    +0.282 C 
ENDBRANCH  18  20
ENDBRANCH  16  18
ENDBRANCH   1  12
TORSDOF 7
ENDMDL
MODEL 7
REMARK VINA RESULT:    -6.654      2.715      5.039
REMARK INTER + INTRA:         -11.951
REMARK INTER:                  -9.796
REMARK INTRA:                  -2.155
REMARK UNBOUND:                -2.574
REMARK SMILES COC(=O)c1cccc(CCN(C)Cc2ccccc2)c1
REMARK SMILES IDX 10 1 11 2 12 3 13 4 14 5 15 6 16 7 20 8 17 9 19 10 18 11
REMARK SMILES IDX 9 12 8 13 21 14 7 15 5 16 6 17 3 18 4 19 2 20 1 21
REMARK H PARENT
REMARK INDEX MAP 4 1 3 2 2 3 1 4 15 5 16 6 17 7 21 8 18 9 20 10 19 11 5 12
REMARK INDEX MAP 6 13 10 14 7 15 9 16 8 17 11 18 12 19 13 20 14 21
ROOT
ATOM      1  C   UNL     1     132.364 122.256 126.405  1.00  0.00    +0.051 C 
ENDROOT
BRANCH   1   2
ATOM      2  C   UNL     1     133.710 121.539 126.198  1.00  0.00    +0.089 C 
BRANCH   2   3
ATOM      3  N   UNL     1     134.932 122.308 126.498  1.00  0.00    -0.302 NA
ATOM      4  C   UNL     1     135.462 122.001 127.825  1.00  0.00    +0.105 C 
BRANCH   3   5
ATOM      5  C   UNL     1     135.987 122.183 125.479  1.00  0.00    +0.119 C 
BRANCH   5   6
ATOM      6  C   UNL     1     135.923 123.242 124.399  1.00  0.00    -0.034 A 
ATOM      7  C   UNL     1     135.957 122.877 123.045  1.00  0.00    +0.005 A 
ATOM      8  C   UNL     1     135.837 124.602 124.733  1.00  0.00    +0.005 A 
ATOM      9  C   UNL     1     135.910 123.852 122.047  1.00  0.00    +0.000 A 
ATOM     10  C   UNL     1     135.794 125.575 123.734  1.00  0.00    +0.000 A 
ATOM     11  C   UNL     1     135.829 125.200 122.392  1.00  0.00    +0.000 A 
ENDBRANCH   5   6
ENDBRANCH   3   5
ENDBRANCH   2   3
ENDBRANCH   1   2
BRANCH   1  12
ATOM     12  C   UNL     1     132.216 123.439 125.475  1.00  0.00    -0.046 A 
ATOM     13  C   UNL     1     132.379 123.287 124.093  1.00  0.00    +0.004 A 
ATOM     14  C   UNL     1     131.883 124.702 125.988  1.00  0.00    +0.019 A 
ATOM     15  C   UNL     1     132.224 124.380 123.239  1.00  0.00    +0.001 A 
ATOM     16  C   UNL     1     131.727 125.804 125.135  1.00  0.00    +0.060 A 
ATOM     17  C   UNL     1     131.901 125.636 123.756  1.00  0.00    +0.016 A 
BRANCH  16  18
ATOM     18  C   UNL     1     131.386 127.120 125.744  1.00  0.00    +0.337 C 
ATOM     19  O   UNL     1     130.868 128.036 125.126  1.00  0.00    -0.246 OA
BRANCH  18  20
ATOM     20  O   UNL     1     131.733 127.146 127.055  1.00  0.00    -0.465 OA
ATOM     21  C   UNL     1     130.841 127.900 127.875  1.00  0.00    +0.282 C 
ENDBRANCH  18  20
ENDBRANCH  16  18
ENDBRANCH   1  12
TORSDOF 7
ENDMDL
MODEL 8
REMARK VINA RESULT:    -6.654      1.379      3.567
REMARK INTER + INTRA:         -11.950
REMARK INTER:                 -10.154
REMARK INTRA:                  -1.796
REMARK UNBOUND:                -2.574
REMARK SMILES COC(=O)c1cccc(CCN(C)Cc2ccccc2)c1
REMARK SMILES IDX 10 1 11 2 12 3 13 4 14 5 15 6 16 7 20 8 17 9 19 10 18 11
REMARK SMILES IDX 9 12 8 13 21 14 7 15 5 16 6 17 3 18 4 19 2 20 1 21
REMARK H PARENT
REMARK INDEX MAP 4 1 3 2 2 3 1 4 15 5 16 6 17 7 21 8 18 9 20 10 19 11 5 12
REMARK INDEX MAP 6 13 10 14 7 15 9 16 8 17 11 18 12 19 13 20 14 21
ROOT
ATOM      1  C   UNL     1     132.370 125.888 124.565  1.00  0.00    +0.051 C 
ENDROOT
BRANCH   1   2
ATOM      2  C   UNL     1     131.686 124.511 124.642  1.00  0.00    +0.089 C 
BRANCH   2   3
ATOM      3  N   UNL     1     131.979 123.683 125.828  1.00  0.00    -0.302 NA
ATOM      4  C   UNL     1     130.868 123.673 126.777  1.00  0.00    +0.105 C 
BRANCH   3   5
ATOM      5  C   UNL     1     132.399 122.308 125.511  1.00  0.00    +0.119 C 
BRANCH   5   6
ATOM      6  C   UNL     1     133.900 122.111 125.519  1.00  0.00    -0.034 A 
ATOM      7  C   UNL     1     134.564 121.760 126.704  1.00  0.00    +0.005 A 
ATOM      8  C   UNL     1     134.652 122.281 124.346  1.00  0.00    +0.005 A 
ATOM      9  C   UNL     1     135.949 121.589 126.717  1.00  0.00    +0.000 A 
ATOM     10  C   UNL     1     136.037 122.113 124.362  1.00  0.00    +0.000 A 
ATOM     11  C   UNL     1     136.684 121.766 125.547  1.00  0.00    +0.000 A 
ENDBRANCH   5   6
ENDBRANCH   3   5
ENDBRANCH   2   3
ENDBRANCH   1   2
BRANCH   1  12
ATOM     12  C   UNL     1     133.738 125.794 123.927  1.00  0.00    -0.046 A 
ATOM     13  C   UNL     1     134.898 125.915 124.701  1.00  0.00    +0.004 A 
ATOM     14  C   UNL     1     133.858 125.556 122.550  1.00  0.00    +0.019 A 
ATOM     15  C   UNL     1     136.157 125.809 124.109  1.00  0.00    +0.001 A 
ATOM     16  C   UNL     1     135.120 125.451 121.948  1.00  0.00    +0.060 A 
ATOM     17  C   UNL     1     136.271 125.580 122.737  1.00  0.00    +0.016 A 
BRANCH  16  18
ATOM     18  C   UNL     1     135.180 125.209 120.480  1.00  0.00    +0.337 C 
ATOM     19  O   UNL     1     134.493 125.809 119.668  1.00  0.00    -0.246 OA
BRANCH  18  20
ATOM     20  O   UNL     1     136.088 124.245 120.189  1.00  0.00    -0.465 OA
ATOM     21  C   UNL     1     135.608 122.916 120.396  1.00  0.00    +0.282 C 
ENDBRANCH  18  20
ENDBRANCH  16  18
ENDBRANCH   1  12
TORSDOF 7
ENDMDL
MODEL 9
REMARK VINA RESULT:    -6.645      3.549      5.827
REMARK INTER + INTRA:         -11.938
REMARK INTER:                 -10.893
REMARK INTRA:                  -1.045
REMARK UNBOUND:                -2.574
REMARK SMILES COC(=O)c1cccc(CCN(C)Cc2ccccc2)c1
REMARK SMILES IDX 10 1 11 2 12 3 13 4 14 5 15 6 16 7 20 8 17 9 19 10 18 11
REMARK SMILES IDX 9 12 8 13 21 14 7 15 5 16 6 17 3 18 4 19 2 20 1 21
REMARK H PARENT
REMARK INDEX MAP 4 1 3 2 2 3 1 4 15 5 16 6 17 7 21 8 18 9 20 10 19 11 5 12
REMARK INDEX MAP 6 13 10 14 7 15 9 16 8 17 11 18 12 19 13 20 14 21
ROOT
ATOM      1  C   UNL     1     133.484 121.878 126.453  1.00  0.00    +0.051 C 
ENDROOT
BRANCH   1   2
ATOM      2  C   UNL     1     134.895 122.159 127.000  1.00  0.00    +0.089 C 
BRANCH   2   3
ATOM      3  N   UNL     1     136.021 122.010 126.058  1.00  0.00    -0.302 NA
ATOM      4  C   UNL     1     137.006 121.039 126.530  1.00  0.00    +0.105 C 
BRANCH   3   5
ATOM      5  C   UNL     1     135.612 121.701 124.677  1.00  0.00    +0.119 C 
BRANCH   5   6
ATOM      6  C   UNL     1     135.727 122.874 123.729  1.00  0.00    -0.034 A 
ATOM      7  C   UNL     1     135.376 122.732 122.378  1.00  0.00    +0.005 A 
ATOM      8  C   UNL     1     136.192 124.119 124.180  1.00  0.00    +0.005 A 
ATOM      9  C   UNL     1     135.491 123.809 121.497  1.00  0.00    +0.000 A 
ATOM     10  C   UNL     1     136.311 125.193 123.298  1.00  0.00    +0.000 A 
ATOM     11  C   UNL     1     135.959 125.039 121.958  1.00  0.00    +0.000 A 
ENDBRANCH   5   6
ENDBRANCH   3   5
ENDBRANCH   2   3
ENDBRANCH   1   2
BRANCH   1  12
ATOM     12  C   UNL     1     132.640 123.131 126.422  1.00  0.00    -0.046 A 
ATOM     13  C   UNL     1     133.225 124.383 126.194  1.00  0.00    +0.004 A 
ATOM     14  C   UNL     1     131.249 123.049 126.595  1.00  0.00    +0.019 A 
ATOM     15  C   UNL     1     132.437 125.534 126.148  1.00  0.00    +0.001 A 
ATOM     16  C   UNL     1     130.453 124.203 126.552  1.00  0.00    +0.060 A 
ATOM     17  C   UNL     1     131.056 125.447 126.329  1.00  0.00    +0.016 A 
BRANCH  16  18
ATOM     18  C   UNL     1     128.985 124.050 126.755  1.00  0.00    +0.337 C 
ATOM     19  O   UNL     1     128.224 123.637 125.895  1.00  0.00    -0.246 OA
BRANCH  18  20
ATOM     20  O   UNL     1     128.632 124.432 128.007  1.00  0.00    -0.465 OA
ATOM     21  C   UNL     1     127.677 123.571 128.628  1.00  0.00    +0.282 C 
ENDBRANCH  18  20
ENDBRANCH  16  18
ENDBRANCH   1  12
TORSDOF 7
ENDMDL
MODEL 10
REMARK VINA RESULT:    -6.625      2.399      4.375
REMARK INTER + INTRA:         -11.910
REMARK INTER:                  -9.481
REMARK INTRA:                  -2.429
REMARK UNBOUND:                -2.574
REMARK SMILES COC(=O)c1cccc(CCN(C)Cc2ccccc2)c1
REMARK SMILES IDX 10 1 11 2 12 3 13 4 14 5 15 6 16 7 20 8 17 9 19 10 18 11
REMARK SMILES IDX 9 12 8 13 21 14 7 15 5 16 6 17 3 18 4 19 2 20 1 21
REMARK H PARENT
REMARK INDEX MAP 4 1 3 2 2 3 1 4 15 5 16 6 17 7 21 8 18 9 20 10 19 11 5 12
REMARK INDEX MAP 6 13 10 14 7 15 9 16 8 17 11 18 12 19 13 20 14 21
ROOT
ATOM      1  C   UNL     1     132.193 124.965 123.987  1.00  0.00    +0.051 C 
ENDROOT
BRANCH   1   2
ATOM      2  C   UNL     1     131.382 123.863 124.692  1.00  0.00    +0.089 C 
BRANCH   2   3
ATOM      3  N   UNL     1     131.599 123.694 126.141  1.00  0.00    -0.302 NA
ATOM      4  C   UNL     1     130.451 124.146 126.924  1.00  0.00    +0.105 C 
BRANCH   3   5
ATOM      5  C   UNL     1     131.988 122.330 126.536  1.00  0.00    +0.119 C 
BRANCH   5   6
ATOM      6  C   UNL     1     133.472 122.060 126.419  1.00  0.00    -0.034 A 
ATOM      7  C   UNL     1     133.946 121.068 125.548  1.00  0.00    +0.005 A 
ATOM      8  C   UNL     1     134.397 122.789 127.182  1.00  0.00    +0.005 A 
ATOM      9  C   UNL     1     135.314 120.808 125.445  1.00  0.00    +0.000 A 
ATOM     10  C   UNL     1     135.763 122.525 127.081  1.00  0.00    +0.000 A 
ATOM     11  C   UNL     1     136.221 121.536 126.213  1.00  0.00    +0.000 A 
ENDBRANCH   5   6
ENDBRANCH   3   5
ENDBRANCH   2   3
ENDBRANCH   1   2
BRANCH   1  12
ATOM     12  C   UNL     1     133.621 124.534 123.742  1.00  0.00    -0.046 A 
ATOM     13  C   UNL     1     133.910 123.491 122.854  1.00  0.00    +0.004 A 
ATOM     14  C   UNL     1     134.678 125.197 124.383  1.00  0.00    +0.019 A 
ATOM     15  C   UNL     1     135.232 123.109 122.618  1.00  0.00    +0.001 A 
ATOM     16  C   UNL     1     136.008 124.818 124.152  1.00  0.00    +0.060 A 
ATOM     17  C   UNL     1     136.279 123.768 123.265  1.00  0.00    +0.016 A 
BRANCH  16  18
ATOM     18  C   UNL     1     137.083 125.553 124.873  1.00  0.00    +0.337 C 
ATOM     19  O   UNL     1     137.793 125.046 125.727  1.00  0.00    -0.246 OA
BRANCH  18  20
ATOM     20  O   UNL     1     137.150 126.840 124.450  1.00  0.00    -0.465 OA
ATOM     21  C   UNL     1     136.610 127.783 125.375  1.00  0.00    +0.282 C 
ENDBRANCH  18  20
ENDBRANCH  16  18
ENDBRANCH   1  12
TORSDOF 7
ENDMDL
MODEL 11
REMARK VINA RESULT:    -6.476      3.469      4.913
REMARK INTER + INTRA:         -11.699
REMARK INTER:                 -11.324
REMARK INTRA:                  -0.376
REMARK UNBOUND:                -2.574
REMARK SMILES COC(=O)c1cccc(CCN(C)Cc2ccccc2)c1
REMARK SMILES IDX 10 1 11 2 12 3 13 4 14 5 15 6 16 7 20 8 17 9 19 10 18 11
REMARK SMILES IDX 9 12 8 13 21 14 7 15 5 16 6 17 3 18 4 19 2 20 1 21
REMARK H PARENT
REMARK INDEX MAP 4 1 3 2 2 3 1 4 15 5 16 6 17 7 21 8 18 9 20 10 19 11 5 12
REMARK INDEX MAP 6 13 10 14 7 15 9 16 8 17 11 18 12 19 13 20 14 21
ROOT
ATOM      1  C   UNL     1     132.153 125.978 122.967  1.00  0.00    +0.051 C 
ENDROOT
BRANCH   1   2
ATOM      2  C   UNL     1     131.751 125.591 124.402  1.00  0.00    +0.089 C 
BRANCH   2   3
ATOM      3  N   UNL     1     130.381 125.933 124.828  1.00  0.00    -0.302 NA
ATOM      4  C   UNL     1     129.981 125.201 126.028  1.00  0.00    +0.105 C 
BRANCH   3   5
ATOM      5  C   UNL     1     130.148 127.376 125.003  1.00  0.00    +0.119 C 
BRANCH   5   6
ATOM      6  C   UNL     1     129.259 127.985 123.939  1.00  0.00    -0.034 A 
ATOM      7  C   UNL     1     128.213 127.239 123.377  1.00  0.00    +0.005 A 
ATOM      8  C   UNL     1     129.470 129.298 123.493  1.00  0.00    +0.005 A 
ATOM      9  C   UNL     1     127.398 127.792 122.388  1.00  0.00    +0.000 A 
ATOM     10  C   UNL     1     128.657 129.849 122.502  1.00  0.00    +0.000 A 
ATOM     11  C   UNL     1     127.621 129.097 121.951  1.00  0.00    +0.000 A 
ENDBRANCH   5   6
ENDBRANCH   3   5
ENDBRANCH   2   3
ENDBRANCH   1   2
BRANCH   1  12
ATOM     12  C   UNL     1     133.284 125.115 122.455  1.00  0.00    -0.046 A 
ATOM     13  C   UNL     1     133.699 125.197 121.121  1.00  0.00    +0.004 A 
ATOM     14  C   UNL     1     133.951 124.238 123.325  1.00  0.00    +0.019 A 
ATOM     15  C   UNL     1     134.756 124.410 120.659  1.00  0.00    +0.001 A 
ATOM     16  C   UNL     1     135.012 123.444 122.867  1.00  0.00    +0.060 A 
ATOM     17  C   UNL     1     135.410 123.534 121.527  1.00  0.00    +0.016 A 
BRANCH  16  18
ATOM     18  C   UNL     1     135.670 122.526 123.837  1.00  0.00    +0.337 C 
ATOM     19  O   UNL     1     135.244 121.415 124.112  1.00  0.00    -0.246 OA
BRANCH  18  20
ATOM     20  O   UNL     1     136.785 123.097 124.357  1.00  0.00    -0.465 OA
ATOM     21  C   UNL     1     136.518 124.161 125.270  1.00  0.00    +0.282 C 
ENDBRANCH  18  20
ENDBRANCH  16  18
ENDBRANCH   1  12
TORSDOF 7
ENDMDL
MODEL 12
REMARK VINA RESULT:    -6.449      2.847      4.218
REMARK INTER + INTRA:         -11.662
REMARK INTER:                 -10.994
REMARK INTRA:                  -0.668
REMARK UNBOUND:                -2.574
REMARK SMILES COC(=O)c1cccc(CCN(C)Cc2ccccc2)c1
REMARK SMILES IDX 10 1 11 2 12 3 13 4 14 5 15 6 16 7 20 8 17 9 19 10 18 11
REMARK SMILES IDX 9 12 8 13 21 14 7 15 5 16 6 17 3 18 4 19 2 20 1 21
REMARK H PARENT
REMARK INDEX MAP 4 1 3 2 2 3 1 4 15 5 16 6 17 7 21 8 18 9 20 10 19 11 5 12
REMARK INDEX MAP 6 13 10 14 7 15 9 16 8 17 11 18 12 19 13 20 14 21
ROOT
ATOM      1  C   UNL     1     133.221 126.205 122.052  1.00  0.00    +0.051 C 
ENDROOT
BRANCH   1   2
ATOM      2  C   UNL     1     132.972 125.874 123.535  1.00  0.00    +0.089 C 
BRANCH   2   3
ATOM      3  N   UNL     1     131.642 125.344 123.888  1.00  0.00    -0.302 NA
ATOM      4  C   UNL     1     131.713 123.971 124.384  1.00  0.00    +0.105 C 
BRANCH   3   5
ATOM      5  C   UNL     1     130.886 126.193 124.825  1.00  0.00    +0.119 C 
BRANCH   5   6
ATOM      6  C   UNL     1     129.971 127.188 124.145  1.00  0.00    -0.034 A 
ATOM      7  C   UNL     1     130.310 128.548 124.100  1.00  0.00    +0.005 A 
ATOM      8  C   UNL     1     128.768 126.770 123.555  1.00  0.00    +0.005 A 
ATOM      9  C   UNL     1     129.463 129.471 123.484  1.00  0.00    +0.000 A 
ATOM     10  C   UNL     1     127.920 127.694 122.943  1.00  0.00    +0.000 A 
ATOM     11  C   UNL     1     128.268 129.043 122.907  1.00  0.00    +0.000 A 
ENDBRANCH   5   6
ENDBRANCH   3   5
ENDBRANCH   2   3
ENDBRANCH   1   2
BRANCH   1  12
ATOM     12  C   UNL     1     134.112 125.176 121.395  1.00  0.00    -0.046 A 
ATOM     13  C   UNL     1     134.970 124.378 122.162  1.00  0.00    +0.004 A 
ATOM     14  C   UNL     1     134.067 124.988 120.005  1.00  0.00    +0.019 A 
ATOM     15  C   UNL     1     135.777 123.417 121.551  1.00  0.00    +0.001 A 
ATOM     16  C   UNL     1     134.876 124.025 119.385  1.00  0.00    +0.060 A 
ATOM     17  C   UNL     1     135.733 123.241 120.167  1.00  0.00    +0.016 A 
BRANCH  16  18
ATOM     18  C   UNL     1     134.790 123.884 117.905  1.00  0.00    +0.337 C 
ATOM     19  O   UNL     1     135.473 123.104 117.260  1.00  0.00    -0.246 OA
BRANCH  18  20
ATOM     20  O   UNL     1     133.864 124.734 117.395  1.00  0.00    -0.465 OA
ATOM     21  C   UNL     1     132.842 124.089 116.635  1.00  0.00    +0.282 C 
ENDBRANCH  18  20
ENDBRANCH  16  18
ENDBRANCH   1  12
TORSDOF 7
ENDMDL
MODEL 13
REMARK VINA RESULT:    -6.439      3.381      6.100
REMARK INTER + INTRA:         -11.647
REMARK INTER:                 -10.901
REMARK INTRA:                  -0.746
REMARK UNBOUND:                -2.574
REMARK SMILES COC(=O)c1cccc(CCN(C)Cc2ccccc2)c1
REMARK SMILES IDX 10 1 11 2 12 3 13 4 14 5 15 6 16 7 20 8 17 9 19 10 18 11
REMARK SMILES IDX 9 12 8 13 21 14 7 15 5 16 6 17 3 18 4 19 2 20 1 21
REMARK H PARENT
REMARK INDEX MAP 4 1 3 2 2 3 1 4 15 5 16 6 17 7 21 8 18 9 20 10 19 11 5 12
REMARK INDEX MAP 6 13 10 14 7 15 9 16 8 17 11 18 12 19 13 20 14 21
ROOT
ATOM      1  C   UNL     1     132.773 122.968 125.846  1.00  0.00    +0.051 C 
ENDROOT
BRANCH   1   2
ATOM      2  C   UNL     1     134.159 123.625 125.982  1.00  0.00    +0.089 C 
BRANCH   2   3
ATOM      3  N   UNL     1     134.799 124.099 124.740  1.00  0.00    -0.302 NA
ATOM      4  C   UNL     1     136.200 124.459 124.949  1.00  0.00    +0.105 C 
BRANCH   3   5
ATOM      5  C   UNL     1     134.668 123.171 123.604  1.00  0.00    +0.119 C 
BRANCH   5   6
ATOM      6  C   UNL     1     134.610 123.858 122.257  1.00  0.00    -0.034 A 
ATOM      7  C   UNL     1     133.801 124.989 122.072  1.00  0.00    +0.005 A 
ATOM      8  C   UNL     1     135.356 123.374 121.172  1.00  0.00    +0.005 A 
ATOM      9  C   UNL     1     133.736 125.619 120.827  1.00  0.00    +0.000 A 
ATOM     10  C   UNL     1     135.288 124.003 119.928  1.00  0.00    +0.000 A 
ATOM     11  C   UNL     1     134.479 125.125 119.757  1.00  0.00    +0.000 A 
ENDBRANCH   5   6
ENDBRANCH   3   5
ENDBRANCH   2   3
ENDBRANCH   1   2
BRANCH   1  12
ATOM     12  C   UNL     1     131.680 123.860 126.389  1.00  0.00    -0.046 A 
ATOM     13  C   UNL     1     130.564 123.313 127.035  1.00  0.00    +0.004 A 
ATOM     14  C   UNL     1     131.787 125.255 126.276  1.00  0.00    +0.019 A 
ATOM     15  C   UNL     1     129.568 124.143 127.550  1.00  0.00    +0.001 A 
ATOM     16  C   UNL     1     130.788 126.094 126.790  1.00  0.00    +0.060 A 
ATOM     17  C   UNL     1     129.676 125.529 127.427  1.00  0.00    +0.016 A 
BRANCH  16  18
ATOM     18  C   UNL     1     130.955 127.565 126.627  1.00  0.00    +0.337 C 
ATOM     19  O   UNL     1     130.296 128.238 125.851  1.00  0.00    -0.246 OA
BRANCH  18  20
ATOM     20  O   UNL     1     131.928 128.031 127.449  1.00  0.00    -0.465 OA
ATOM     21  C   UNL     1     131.438 128.599 128.663  1.00  0.00    +0.282 C 
ENDBRANCH  18  20
ENDBRANCH  16  18
ENDBRANCH   1  12
TORSDOF 7
ENDMDL
MODEL 14
REMARK VINA RESULT:    -6.333      1.780      3.085
REMARK INTER + INTRA:         -11.498
REMARK INTER:                  -9.984
REMARK INTRA:                  -1.514
REMARK UNBOUND:                -2.574
REMARK SMILES COC(=O)c1cccc(CCN(C)Cc2ccccc2)c1
REMARK SMILES IDX 10 1 11 2 12 3 13 4 14 5 15 6 16 7 20 8 17 9 19 10 18 11
REMARK SMILES IDX 9 12 8 13 21 14 7 15 5 16 6 17 3 18 4 19 2 20 1 21
REMARK H PARENT
REMARK INDEX MAP 4 1 3 2 2 3 1 4 15 5 16 6 17 7 21 8 18 9 20 10 19 11 5 12
REMARK INDEX MAP 6 13 10 14 7 15 9 16 8 17 11 18 12 19 13 20 14 21
ROOT
ATOM      1  C   UNL     1     135.873 121.799 124.434  1.00  0.00    +0.051 C 
ENDROOT
BRANCH   1   2
ATOM      2  C   UNL     1     135.728 122.381 125.852  1.00  0.00    +0.089 C 
BRANCH   2   3
ATOM      3  N   UNL     1     134.958 121.586 126.828  1.00  0.00    -0.302 NA
ATOM      4  C   UNL     1     135.422 121.799 128.197  1.00  0.00    +0.105 C 
BRANCH   3   5
ATOM      5  C   UNL     1     133.501 121.776 126.741  1.00  0.00    +0.119 C 
BRANCH   5   6
ATOM      6  C   UNL     1     133.088 122.957 125.888  1.00  0.00    -0.034 A 
ATOM      7  C   UNL     1     133.356 124.267 126.313  1.00  0.00    +0.005 A 
ATOM      8  C   UNL     1     132.427 122.763 124.666  1.00  0.00    +0.005 A 
ATOM      9  C   UNL     1     132.967 125.358 125.534  1.00  0.00    +0.000 A 
ATOM     10  C   UNL     1     132.035 123.855 123.891  1.00  0.00    +0.000 A 
ATOM     11  C   UNL     1     132.306 125.151 124.324  1.00  0.00    +0.000 A 
ENDBRANCH   5   6
ENDBRANCH   3   5
ENDBRANCH   2   3
ENDBRANCH   1   2
BRANCH   1  12
ATOM     12  C   UNL     1     135.749 122.873 123.378  1.00  0.00    -0.046 A 
ATOM     13  C   UNL     1     135.307 122.560 122.087  1.00  0.00    +0.004 A 
ATOM     14  C   UNL     1     136.051 124.208 123.690  1.00  0.00    +0.019 A 
ATOM     15  C   UNL     1     135.178 123.559 121.122  1.00  0.00    +0.001 A 
ATOM     16  C   UNL     1     135.925 125.216 122.724  1.00  0.00    +0.060 A 
ATOM     17  C   UNL     1     135.487 124.884 121.436  1.00  0.00    +0.016 A 
BRANCH  16  18
ATOM     18  C   UNL     1     136.272 126.610 123.116  1.00  0.00    +0.337 C 
ATOM     19  O   UNL     1     135.935 127.595 122.478  1.00  0.00    -0.246 OA
BRANCH  18  20
ATOM     20  O   UNL     1     137.003 126.619 124.258  1.00  0.00    -0.465 OA
ATOM     21  C   UNL     1     136.475 127.467 125.278  1.00  0.00    +0.282 C 
ENDBRANCH  18  20
ENDBRANCH  16  18
ENDBRANCH   1  12
TORSDOF 7
ENDMDL
MODEL 15
REMARK VINA RESULT:    -6.229      3.341      6.114
REMARK INTER + INTRA:         -11.351
REMARK INTER:                 -10.499
REMARK INTRA:                  -0.853
REMARK UNBOUND:                -2.574
REMARK SMILES COC(=O)c1cccc(CCN(C)Cc2ccccc2)c1
REMARK SMILES IDX 10 1 11 2 12 3 13 4 14 5 15 6 16 7 20 8 17 9 19 10 18 11
REMARK SMILES IDX 9 12 8 13 21 14 7 15 5 16 6 17 3 18 4 19 2 20 1 21
REMARK H PARENT
REMARK INDEX MAP 4 1 3 2 2 3 1 4 15 5 16 6 17 7 21 8 18 9 20 10 19 11 5 12
REMARK INDEX MAP 6 13 10 14 7 15 9 16 8 17 11 18 12 19 13 20 14 21
ROOT
ATOM      1  C   UNL     1     133.899 126.131 124.886  1.00  0.00    +0.051 C 
ENDROOT
BRANCH   1   2
ATOM      2  C   UNL     1     134.174 125.553 123.486  1.00  0.00    +0.089 C 
BRANCH   2   3
ATOM      3  N   UNL     1     135.556 125.124 123.198  1.00  0.00    -0.302 NA
ATOM      4  C   UNL     1     136.288 126.121 122.419  1.00  0.00    +0.105 C 
BRANCH   3   5
ATOM      5  C   UNL     1     136.325 124.735 124.391  1.00  0.00    +0.119 C 
BRANCH   5   6
ATOM      6  C   UNL     1     135.833 123.462 125.047  1.00  0.00    -0.034 A 
ATOM      7  C   UNL     1     135.593 122.315 124.277  1.00  0.00    +0.005 A 
ATOM      8  C   UNL     1     135.603 123.410 126.430  1.00  0.00    +0.005 A 
ATOM      9  C   UNL     1     135.128 121.142 124.876  1.00  0.00    +0.000 A 
ATOM     10  C   UNL     1     135.135 122.239 127.027  1.00  0.00    +0.000 A 
ATOM     11  C   UNL     1     134.899 121.106 126.250  1.00  0.00    +0.000 A 
ENDBRANCH   5   6
ENDBRANCH   3   5
ENDBRANCH   2   3
ENDBRANCH   1   2
BRANCH   1  12
ATOM     12  C   UNL     1     132.516 125.764 125.376  1.00  0.00    -0.046 A 
ATOM     13  C   UNL     1     132.331 124.692 126.257  1.00  0.00    +0.004 A 
ATOM     14  C   UNL     1     131.403 126.517 124.973  1.00  0.00    +0.019 A 
ATOM     15  C   UNL     1     131.054 124.370 126.720  1.00  0.00    +0.001 A 
ATOM     16  C   UNL     1     130.117 126.197 125.433  1.00  0.00    +0.060 A 
ATOM     17  C   UNL     1     129.949 125.117 126.309  1.00  0.00    +0.016 A 
BRANCH  16  18
ATOM     18  C   UNL     1     128.976 127.028 124.959  1.00  0.00    +0.337 C 
ATOM     19  O   UNL     1     128.465 127.916 125.622  1.00  0.00    -0.246 OA
BRANCH  18  20
ATOM     20  O   UNL     1     128.597 126.654 123.712  1.00  0.00    -0.465 OA
ATOM     21  C   UNL     1     127.843 127.645 123.014  1.00  0.00    +0.282 C 
ENDBRANCH  18  20
ENDBRANCH  16  18
ENDBRANCH   1  12
TORSDOF 7
ENDMDL
MODEL 16
REMARK VINA RESULT:    -6.224      2.941      5.240
REMARK INTER + INTRA:         -11.344
REMARK INTER:                  -9.163
REMARK INTRA:                  -2.181
REMARK UNBOUND:                -2.574
REMARK SMILES COC(=O)c1cccc(CCN(C)Cc2ccccc2)c1
REMARK SMILES IDX 10 1 11 2 12 3 13 4 14 5 15 6 16 7 20 8 17 9 19 10 18 11
REMARK SMILES IDX 9 12 8 13 21 14 7 15 5 16 6 17 3 18 4 19 2 20 1 21
REMARK H PARENT
REMARK INDEX MAP 4 1 3 2 2 3 1 4 15 5 16 6 17 7 21 8 18 9 20 10 19 11 5 12
REMARK INDEX MAP 6 13 10 14 7 15 9 16 8 17 11 18 12 19 13 20 14 21
ROOT
ATOM      1  C   UNL     1     134.984 123.956 125.857  1.00  0.00    +0.051 C 
ENDROOT
BRANCH   1   2
ATOM      2  C   UNL     1     136.314 124.455 125.264  1.00  0.00    +0.089 C 
BRANCH   2   3
ATOM      3  N   UNL     1     136.331 125.822 124.710  1.00  0.00    -0.302 NA
ATOM      4  C   UNL     1     136.952 126.777 125.625  1.00  0.00    +0.105 C 
BRANCH   3   5
ATOM      5  C   UNL     1     136.935 125.921 123.371  1.00  0.00    +0.119 C 
BRANCH   5   6
ATOM      6  C   UNL     1     135.959 125.679 122.240  1.00  0.00    -0.034 A 
ATOM      7  C   UNL     1     136.089 124.548 121.420  1.00  0.00    +0.005 A 
ATOM      8  C   UNL     1     134.914 126.582 121.989  1.00  0.00    +0.005 A 
ATOM      9  C   UNL     1     135.197 124.328 120.369  1.00  0.00    +0.000 A 
ATOM     10  C   UNL     1     134.026 126.362 120.935  1.00  0.00    +0.000 A 
ATOM     11  C   UNL     1     134.167 125.235 120.127  1.00  0.00    +0.000 A 
ENDBRANCH   5   6
ENDBRANCH   3   5
ENDBRANCH   2   3
ENDBRANCH   1   2
BRANCH   1  12
ATOM     12  C   UNL     1     133.806 124.376 125.008  1.00  0.00    -0.046 A 
ATOM     13  C   UNL     1     133.441 123.637 123.875  1.00  0.00    +0.004 A 
ATOM     14  C   UNL     1     133.044 125.499 125.364  1.00  0.00    +0.019 A 
ATOM     15  C   UNL     1     132.341 124.020 123.106  1.00  0.00    +0.001 A 
ATOM     16  C   UNL     1     131.939 125.890 124.594  1.00  0.00    +0.060 A 
ATOM     17  C   UNL     1     131.592 125.143 123.461  1.00  0.00    +0.016 A 
BRANCH  16  18
ATOM     18  C   UNL     1     131.180 127.099 125.019  1.00  0.00    +0.337 C 
ATOM     19  O   UNL     1     130.290 127.605 124.354  1.00  0.00    -0.246 OA
BRANCH  18  20
ATOM     20  O   UNL     1     131.619 127.542 126.223  1.00  0.00    -0.465 OA
ATOM     21  C   UNL     1     130.577 127.989 127.090  1.00  0.00    +0.282 C 
ENDBRANCH  18  20
ENDBRANCH  16  18
ENDBRANCH   1  12
TORSDOF 7
ENDMDL
MODEL 17
REMARK VINA RESULT:    -6.067      3.737      6.641
REMARK INTER + INTRA:         -11.123
REMARK INTER:                 -10.516
REMARK INTRA:                  -0.606
REMARK UNBOUND:                -2.574
REMARK SMILES COC(=O)c1cccc(CCN(C)Cc2ccccc2)c1
REMARK SMILES IDX 10 1 11 2 12 3 13 4 14 5 15 6 16 7 20 8 17 9 19 10 18 11
REMARK SMILES IDX 9 12 8 13 21 14 7 15 5 16 6 17 3 18 4 19 2 20 1 21
REMARK H PARENT
REMARK INDEX MAP 4 1 3 2 2 3 1 4 15 5 16 6 17 7 21 8 18 9 20 10 19 11 5 12
REMARK INDEX MAP 6 13 10 14 7 15 9 16 8 17 11 18 12 19 13 20 14 21
ROOT
ATOM      1  C   UNL     1     132.293 125.644 125.960  1.00  0.00    +0.051 C 
ENDROOT
BRANCH   1   2
ATOM      2  C   UNL     1     133.340 126.183 124.968  1.00  0.00    +0.089 C 
BRANCH   2   3
ATOM      3  N   UNL     1     133.863 125.235 123.965  1.00  0.00    -0.302 NA
ATOM      4  C   UNL     1     133.790 125.775 122.609  1.00  0.00    +0.105 C 
BRANCH   3   5
ATOM      5  C   UNL     1     135.221 124.744 124.253  1.00  0.00    +0.119 C 
BRANCH   5   6
ATOM      6  C   UNL     1     135.251 123.484 125.091  1.00  0.00    -0.034 A 
ATOM      7  C   UNL     1     135.270 123.563 126.491  1.00  0.00    +0.005 A 
ATOM      8  C   UNL     1     135.267 122.219 124.484  1.00  0.00    +0.005 A 
ATOM      9  C   UNL     1     135.309 122.403 127.267  1.00  0.00    +0.000 A 
ATOM     10  C   UNL     1     135.310 121.061 125.260  1.00  0.00    +0.000 A 
ATOM     11  C   UNL     1     135.330 121.153 126.651  1.00  0.00    +0.000 A 
ENDBRANCH   5   6
ENDBRANCH   3   5
ENDBRANCH   2   3
ENDBRANCH   1   2
BRANCH   1  12
ATOM     12  C   UNL     1     131.122 126.590 126.099  1.00  0.00    -0.046 A 
ATOM     13  C   UNL     1     130.520 126.804 127.345  1.00  0.00    +0.004 A 
ATOM     14  C   UNL     1     130.642 127.288 124.980  1.00  0.00    +0.019 A 
ATOM     15  C   UNL     1     129.450 127.692 127.469  1.00  0.00    +0.001 A 
ATOM     16  C   UNL     1     129.567 128.180 125.099  1.00  0.00    +0.060 A 
ATOM     17  C   UNL     1     128.973 128.378 126.352  1.00  0.00    +0.016 A 
BRANCH  16  18
ATOM     18  C   UNL     1     129.098 128.881 123.871  1.00  0.00    +0.337 C 
ATOM     19  O   UNL     1     129.347 130.050 123.624  1.00  0.00    -0.246 OA
BRANCH  18  20
ATOM     20  O   UNL     1     128.368 128.045 123.091  1.00  0.00    -0.465 OA
ATOM     21  C   UNL     1     127.472 128.714 122.205  1.00  0.00    +0.282 C 
ENDBRANCH  18  20
ENDBRANCH  16  18
ENDBRANCH   1  12
TORSDOF 7
ENDMDL
MODEL 18
REMARK VINA RESULT:    -6.032      3.378      6.010
REMARK INTER + INTRA:         -11.074
REMARK INTER:                 -10.377
REMARK INTRA:                  -0.697
REMARK UNBOUND:                -2.574
REMARK SMILES COC(=O)c1cccc(CCN(C)Cc2ccccc2)c1
REMARK SMILES IDX 10 1 11 2 12 3 13 4 14 5 15 6 16 7 20 8 17 9 19 10 18 11
REMARK SMILES IDX 9 12 8 13 21 14 7 15 5 16 6 17 3 18 4 19 2 20 1 21
REMARK H PARENT
REMARK INDEX MAP 4 1 3 2 2 3 1 4 15 5 16 6 17 7 21 8 18 9 20 10 19 11 5 12
REMARK INDEX MAP 6 13 10 14 7 15 9 16 8 17 11 18 12 19 13 20 14 21
ROOT
ATOM      1  C   UNL     1     133.223 124.035 126.095  1.00  0.00    +0.051 C 
ENDROOT
BRANCH   1   2
ATOM      2  C   UNL     1     134.089 125.149 125.479  1.00  0.00    +0.089 C 
BRANCH   2   3
ATOM      3  N   UNL     1     134.906 124.790 124.304  1.00  0.00    -0.302 NA
ATOM      4  C   UNL     1     136.270 124.420 124.677  1.00  0.00    +0.105 C 
BRANCH   3   5
ATOM      5  C   UNL     1     134.305 123.753 123.449  1.00  0.00    +0.119 C 
BRANCH   5   6
ATOM      6  C   UNL     1     134.540 123.969 121.970  1.00  0.00    -0.034 A 
ATOM      7  C   UNL     1     133.905 125.023 121.297  1.00  0.00    +0.005 A 
ATOM      8  C   UNL     1     135.389 123.117 121.246  1.00  0.00    +0.005 A 
ATOM      9  C   UNL     1     134.110 125.219 119.930  1.00  0.00    +0.000 A 
ATOM     10  C   UNL     1     135.591 123.312 119.879  1.00  0.00    +0.000 A 
ATOM     11  C   UNL     1     134.952 124.362 119.222  1.00  0.00    +0.000 A 
ENDBRANCH   5   6
ENDBRANCH   3   5
ENDBRANCH   2   3
ENDBRANCH   1   2
BRANCH   1  12
ATOM     12  C   UNL     1     131.784 124.472 126.251  1.00  0.00    -0.046 A 
ATOM     13  C   UNL     1     130.853 123.652 126.899  1.00  0.00    +0.004 A 
ATOM     14  C   UNL     1     131.371 125.724 125.769  1.00  0.00    +0.019 A 
ATOM     15  C   UNL     1     129.531 124.069 127.055  1.00  0.00    +0.001 A 
ATOM     16  C   UNL     1     130.044 126.148 125.921  1.00  0.00    +0.060 A 
ATOM     17  C   UNL     1     129.124 125.312 126.567  1.00  0.00    +0.016 A 
BRANCH  16  18
ATOM     18  C   UNL     1     129.667 127.482 125.376  1.00  0.00    +0.337 C 
ATOM     19  O   UNL     1     130.433 128.431 125.324  1.00  0.00    -0.246 OA
BRANCH  18  20
ATOM     20  O   UNL     1     128.375 127.483 124.961  1.00  0.00    -0.465 OA
ATOM     21  C   UNL     1     128.222 127.391 123.545  1.00  0.00    +0.282 C 
ENDBRANCH  18  20
ENDBRANCH  16  18
ENDBRANCH   1  12
TORSDOF 7
ENDMDL
MODEL 19
REMARK VINA RESULT:    -5.993      2.551      4.964
REMARK INTER + INTRA:         -11.019
REMARK INTER:                 -10.633
REMARK INTRA:                  -0.386
REMARK UNBOUND:                -2.574
REMARK SMILES COC(=O)c1cccc(CCN(C)Cc2ccccc2)c1
REMARK SMILES IDX 10 1 11 2 12 3 13 4 14 5 15 6 16 7 20 8 17 9 19 10 18 11
REMARK SMILES IDX 9 12 8 13 21 14 7 15 5 16 6 17 3 18 4 19 2 20 1 21
REMARK H PARENT
REMARK INDEX MAP 4 1 3 2 2 3 1 4 15 5 16 6 17 7 21 8 18 9 20 10 19 11 5 12
REMARK INDEX MAP 6 13 10 14 7 15 9 16 8 17 11 18 12 19 13 20 14 21
ROOT
ATOM      1  C   UNL     1     136.149 122.374 125.023  1.00  0.00    +0.051 C 
ENDROOT
BRANCH   1   2
ATOM      2  C   UNL     1     136.441 123.505 124.019  1.00  0.00    +0.089 C 
BRANCH   2   3
ATOM      3  N   UNL     1     136.317 124.889 124.515  1.00  0.00    -0.302 NA
ATOM      4  C   UNL     1     137.257 125.170 125.598  1.00  0.00    +0.105 C 
BRANCH   3   5
ATOM      5  C   UNL     1     136.419 125.915 123.463  1.00  0.00    +0.119 C 
BRANCH   5   6
ATOM      6  C   UNL     1     135.528 125.655 122.268  1.00  0.00    -0.034 A 
ATOM      7  C   UNL     1     134.134 125.763 122.384  1.00  0.00    +0.005 A 
ATOM      8  C   UNL     1     136.078 125.295 121.028  1.00  0.00    +0.005 A 
ATOM      9  C   UNL     1     133.309 125.513 121.287  1.00  0.00    +0.000 A 
ATOM     10  C   UNL     1     135.251 125.042 119.933  1.00  0.00    +0.000 A 
ATOM     11  C   UNL     1     133.868 125.152 120.062  1.00  0.00    +0.000 A 
ENDBRANCH   5   6
ENDBRANCH   3   5
ENDBRANCH   2   3
ENDBRANCH   1   2
BRANCH   1  12
ATOM     12  C   UNL     1     134.710 122.401 125.486  1.00  0.00    -0.046 A 
ATOM     13  C   UNL     1     134.157 121.310 126.168  1.00  0.00    +0.004 A 
ATOM     14  C   UNL     1     133.917 123.537 125.261  1.00  0.00    +0.019 A 
ATOM     15  C   UNL     1     132.834 121.349 126.609  1.00  0.00    +0.001 A 
ATOM     16  C   UNL     1     132.586 123.581 125.699  1.00  0.00    +0.060 A 
ATOM     17  C   UNL     1     132.048 122.478 126.375  1.00  0.00    +0.016 A 
BRANCH  16  18
ATOM     18  C   UNL     1     131.795 124.811 125.418  1.00  0.00    +0.337 C 
ATOM     19  O   UNL     1     130.802 124.828 124.708  1.00  0.00    -0.246 OA
BRANCH  18  20
ATOM     20  O   UNL     1     132.334 125.883 126.050  1.00  0.00    -0.465 OA
ATOM     21  C   UNL     1     131.378 126.691 126.737  1.00  0.00    +0.282 C 
ENDBRANCH  18  20
ENDBRANCH  16  18
ENDBRANCH   1  12
TORSDOF 7
ENDMDL
MODEL 20
REMARK VINA RESULT:    -5.847      2.941      4.475
REMARK INTER + INTRA:         -10.814
REMARK INTER:                 -10.250
REMARK INTRA:                  -0.564
REMARK UNBOUND:                -2.574
REMARK SMILES COC(=O)c1cccc(CCN(C)Cc2ccccc2)c1
REMARK SMILES IDX 10 1 11 2 12 3 13 4 14 5 15 6 16 7 20 8 17 9 19 10 18 11
REMARK SMILES IDX 9 12 8 13 21 14 7 15 5 16 6 17 3 18 4 19 2 20 1 21
REMARK H PARENT
REMARK INDEX MAP 4 1 3 2 2 3 1 4 15 5 16 6 17 7 21 8 18 9 20 10 19 11 5 12
REMARK INDEX MAP 6 13 10 14 7 15 9 16 8 17 11 18 12 19 13 20 14 21
ROOT
ATOM      1  C   UNL     1     132.406 124.064 126.397  1.00  0.00    +0.051 C 
ENDROOT
BRANCH   1   2
ATOM      2  C   UNL     1     131.367 124.628 125.411  1.00  0.00    +0.089 C 
BRANCH   2   3
ATOM      3  N   UNL     1     131.545 126.027 124.977  1.00  0.00    -0.302 NA
ATOM      4  C   UNL     1     131.722 126.134 123.531  1.00  0.00    +0.105 C 
BRANCH   3   5
ATOM      5  C   UNL     1     130.484 126.939 125.436  1.00  0.00    +0.119 C 
BRANCH   5   6
ATOM      6  C   UNL     1     130.572 127.288 126.907  1.00  0.00    -0.034 A 
ATOM      7  C   UNL     1     129.671 126.726 127.824  1.00  0.00    +0.005 A 
ATOM      8  C   UNL     1     131.547 128.181 127.375  1.00  0.00    +0.005 A 
ATOM      9  C   UNL     1     129.742 127.054 129.179  1.00  0.00    +0.000 A 
ATOM     10  C   UNL     1     131.614 128.511 128.729  1.00  0.00    +0.000 A 
ATOM     11  C   UNL     1     130.712 127.946 129.630  1.00  0.00    +0.000 A 
ENDBRANCH   5   6
ENDBRANCH   3   5
ENDBRANCH   2   3
ENDBRANCH   1   2
BRANCH   1  12
ATOM     12  C   UNL     1     133.473 123.266 125.682  1.00  0.00    -0.046 A 
ATOM     13  C   UNL     1     133.926 122.049 126.204  1.00  0.00    +0.004 A 
ATOM     14  C   UNL     1     134.002 123.727 124.466  1.00  0.00    +0.019 A 
ATOM     15  C   UNL     1     134.898 121.308 125.530  1.00  0.00    +0.001 A 
ATOM     16  C   UNL     1     134.980 122.988 123.785  1.00  0.00    +0.060 A 
ATOM     17  C   UNL     1     135.426 121.775 124.325  1.00  0.00    +0.016 A 
BRANCH  16  18
ATOM     18  C   UNL     1     135.510 123.537 122.506  1.00  0.00    +0.337 C 
ATOM     19  O   UNL     1     135.999 122.847 121.625  1.00  0.00    -0.246 OA
BRANCH  18  20
ATOM     20  O   UNL     1     135.373 124.886 122.471  1.00  0.00    -0.465 OA
ATOM     21  C   UNL     1     136.125 125.517 121.434  1.00  0.00    +0.282 C 
ENDBRANCH  18  20
ENDBRANCH  16  18
ENDBRANCH   1  12
TORSDOF 7
ENDMDL
