MODEL 1
REMARK VINA RESULT:    -8.717      0.000      0.000
REMARK INTER + INTRA:         -12.973
REMARK INTER:                 -12.284
REMARK INTRA:                  -0.690
REMARK UNBOUND:                -0.690
REMARK SMILES COC(=O)c1cccc(CCN(C)Cc2ccccc2)c1
REMARK SMILES IDX 10 1 11 2 12 3 13 4 14 5 15 6 16 7 20 8 17 9 19 10 18 11
REMARK SMILES IDX 9 12 8 13 21 14 7 15 5 16 6 17 3 18 4 19 2 20 1 21
REMARK H PARENT
REMARK INDEX MAP 4 1 3 2 2 3 1 4 15 5 16 6 17 7 21 8 18 9 20 10 19 11 5 12
REMARK INDEX MAP 6 13 10 14 7 15 9 16 8 17 11 18 12 19 13 20 14 21
ROOT
ATOM      1  C   UNL     1     136.015 123.113 122.960  1.00  0.00    +0.051 C 
ENDROOT
BRANCH   1   2
ATOM      2  C   UNL     1     135.436 124.458 122.484  1.00  0.00    +0.089 C 
BRANCH   2   3
ATOM      3  N   UNL     1     134.624 124.439 121.252  1.00  0.00    -0.302 NA
ATOM      4  C   UNL     1     133.557 125.437 121.284  1.00  0.00    +0.105 C 
BRANCH   3   5
ATOM      5  C   UNL     1     135.409 124.562 120.013  1.00  0.00    +0.119 C 
BRANCH   5   6
ATOM      6  C   UNL     1     135.195 123.424 119.038  1.00  0.00    -0.034 A 
ATOM      7  C   UNL     1     135.379 122.095 119.448  1.00  0.00    +0.005 A 
ATOM      8  C   UNL     1     134.817 123.677 117.711  1.00  0.00    +0.005 A 
ATOM      9  C   UNL     1     135.194 121.043 118.549  1.00  0.00    +0.000 A 
ATOM     10  C   UNL     1     134.636 122.625 116.813  1.00  0.00    +0.000 A 
ATOM     11  C   UNL     1     134.823 121.309 117.232  1.00  0.00    +0.000 A 
ENDBRANCH   5   6
ENDBRANCH   3   5
ENDBRANCH   2   3
ENDBRANCH   1   2
BRANCH   1  12
ATOM     12  C   UNL     1     135.200 122.527 124.091  1.00  0.00    -0.046 A 
ATOM     13  C   UNL     1     135.763 121.595 124.970  1.00  0.00    +0.004 A 
ATOM     14  C   UNL     1     133.872 122.937 124.289  1.00  0.00    +0.019 A 
ATOM     15  C   UNL     1     135.011 121.072 126.023  1.00  0.00    +0.001 A 
ATOM     16  C   UNL     1     133.111 122.414 125.344  1.00  0.00    +0.060 A 
ATOM     17  C   UNL     1     133.688 121.477 126.210  1.00  0.00    +0.016 A 
BRANCH  16  18
ATOM     18  C   UNL     1     131.704 122.880 125.493  1.00  0.00    +0.337 C 
ATOM     19  O   UNL     1     130.942 123.037 124.552  1.00  0.00    -0.246 OA
BRANCH  18  20
ATOM     20  O   UNL     1     131.408 123.100 126.797  1.00  0.00    -0.465 OA
ATOM     21  C   UNL     1     130.292 123.968 126.999  1.00  0.00    +0.282 C 
ENDBRANCH  18  20
ENDBRANCH  16  18
ENDBRANCH   1  12
TORSDOF 7
ENDMDL
MODEL 2
REMARK VINA RESULT:    -8.632      3.121      6.063
REMARK INTER + INTRA:         -12.855
REMARK INTER:                 -10.291
REMARK INTRA:                  -2.564
REMARK UNBOUND:                -0.690
REMARK SMILES COC(=O)c1cccc(CCN(C)Cc2ccccc2)c1
REMARK SMILES IDX 10 1 11 2 12 3 13 4 14 5 15 6 16 7 20 8 17 9 19 10 18 11
REMARK SMILES IDX 9 12 8 13 21 14 7 15 5 16 6 17 3 18 4 19 2 20 1 21
REMARK H PARENT
REMARK INDEX MAP 4 1 3 2 2 3 1 4 15 5 16 6 17 7 21 8 18 9 20 10 19 11 5 12
REMARK INDEX MAP 6 13 10 14 7 15 9 16 8 17 11 18 12 19 13 20 14 21
ROOT
ATOM      1  C   UNL     1     136.093 121.824 125.281  1.00  0.00    +0.051 C 
ENDROOT
BRANCH   1   2
ATOM      2  C   UNL     1     135.099 121.995 126.444  1.00  0.00    +0.089 C 
BRANCH   2   3
ATOM      3  N   UNL     1     133.667 122.066 126.096  1.00  0.00    -0.302 NA
ATOM      4  C   UNL     1     132.894 121.003 126.734  1.00  0.00    +0.105 C 
BRANCH   3   5
ATOM      5  C   UNL     1     133.051 123.378 126.355  1.00  0.00    +0.119 C 
BRANCH   5   6
ATOM      6  C   UNL     1     132.822 124.202 125.106  1.00  0.00    -0.034 A 
ATOM      7  C   UNL     1     132.439 123.583 123.907  1.00  0.00    +0.005 A 
ATOM      8  C   UNL     1     132.995 125.595 125.123  1.00  0.00    +0.005 A 
ATOM      9  C   UNL     1     132.238 124.338 122.750  1.00  0.00    +0.000 A 
ATOM     10  C   UNL     1     132.797 126.348 123.965  1.00  0.00    +0.000 A 
ATOM     11  C   UNL     1     132.418 125.720 122.780  1.00  0.00    +0.000 A 
ENDBRANCH   5   6
ENDBRANCH   3   5
ENDBRANCH   2   3
ENDBRANCH   1   2
BRANCH   1  12
ATOM     12  C   UNL     1     136.131 123.050 124.397  1.00  0.00    -0.046 A 
ATOM     13  C   UNL     1     136.453 124.305 124.928  1.00  0.00    +0.004 A 
ATOM     14  C   UNL     1     135.870 122.936 123.023  1.00  0.00    +0.019 A 
ATOM     15  C   UNL     1     136.504 125.429 124.103  1.00  0.00    +0.001 A 
ATOM     16  C   UNL     1     135.918 124.063 122.189  1.00  0.00    +0.060 A 
ATOM     17  C   UNL     1     136.236 125.312 122.738  1.00  0.00    +0.016 A 
BRANCH  16  18
ATOM     18  C   UNL     1     135.620 123.878 120.742  1.00  0.00    +0.337 C 
ATOM     19  O   UNL     1     135.809 122.832 120.141  1.00  0.00    -0.246 OA
BRANCH  18  20
ATOM     20  O   UNL     1     135.121 125.019 120.206  1.00  0.00    -0.465 OA
ATOM     21  C   UNL     1     134.425 124.825 118.975  1.00  0.00    +0.282 C 
ENDBRANCH  18  20
ENDBRANCH  16  18
ENDBRANCH   1  12
TORSDOF 7
ENDMDL
MODEL 3
REMARK VINA RESULT:    -8.496      2.870      5.018
REMARK INTER + INTRA:         -12.662
REMARK INTER:                 -10.378
REMARK INTRA:                  -2.284
REMARK UNBOUND:                -0.690
REMARK SMILES COC(=O)c1cccc(CCN(C)Cc2ccccc2)c1
REMARK SMILES IDX 10 1 11 2 12 3 13 4 14 5 15 6 16 7 20 8 17 9 19 10 18 11
REMARK SMILES IDX 9 12 8 13 21 14 7 15 5 16 6 17 3 18 4 19 2 20 1 21
REMARK H PARENT
REMARK INDEX MAP 4 1 3 2 2 3 1 4 15 5 16 6 17 7 21 8 18 9 20 10 19 11 5 12
REMARK INDEX MAP 6 13 10 14 7 15 9 16 8 17 11 18 12 19 13 20 14 21
ROOT
ATOM      1  C   UNL     1     132.687 124.825 122.297  1.00  0.00    +0.051 C 
ENDROOT
BRANCH   1   2
ATOM      2  C   UNL     1     134.004 125.622 122.280  1.00  0.00    +0.089 C 
BRANCH   2   3
ATOM      3  N   UNL     1     135.257 124.845 122.232  1.00  0.00    -0.302 NA
ATOM      4  C   UNL     1     136.091 125.220 121.092  1.00  0.00    +0.105 C 
BRANCH   3   5
ATOM      5  C   UNL     1     136.038 124.887 123.480  1.00  0.00    +0.119 C 
BRANCH   5   6
ATOM      6  C   UNL     1     135.680 123.793 124.462  1.00  0.00    -0.034 A 
ATOM      7  C   UNL     1     135.643 122.453 124.049  1.00  0.00    +0.005 A 
ATOM      8  C   UNL     1     135.373 124.099 125.797  1.00  0.00    +0.005 A 
ATOM      9  C   UNL     1     135.302 121.442 124.949  1.00  0.00    +0.000 A 
ATOM     10  C   UNL     1     135.029 123.088 126.694  1.00  0.00    +0.000 A 
ATOM     11  C   UNL     1     134.995 121.760 126.271  1.00  0.00    +0.000 A 
ENDBRANCH   5   6
ENDBRANCH   3   5
ENDBRANCH   2   3
ENDBRANCH   1   2
BRANCH   1  12
ATOM     12  C   UNL     1     132.206 124.576 123.708  1.00  0.00    -0.046 A 
ATOM     13  C   UNL     1     132.009 123.271 124.178  1.00  0.00    +0.004 A 
ATOM     14  C   UNL     1     131.979 125.655 124.576  1.00  0.00    +0.019 A 
ATOM     15  C   UNL     1     131.583 123.048 125.488  1.00  0.00    +0.001 A 
ATOM     16  C   UNL     1     131.548 125.437 125.893  1.00  0.00    +0.060 A 
ATOM     17  C   UNL     1     131.351 124.126 126.344  1.00  0.00    +0.016 A 
BRANCH  16  18
ATOM     18  C   UNL     1     131.313 126.625 126.760  1.00  0.00    +0.337 C 
ATOM     19  O   UNL     1     131.958 127.658 126.679  1.00  0.00    -0.246 OA
BRANCH  18  20
ATOM     20  O   UNL     1     130.301 126.390 127.631  1.00  0.00    -0.465 OA
ATOM     21  C   UNL     1     130.091 127.441 128.573  1.00  0.00    +0.282 C 
ENDBRANCH  18  20
ENDBRANCH  16  18
ENDBRANCH   1  12
TORSDOF 7
ENDMDL
MODEL 4
REMARK VINA RESULT:    -8.471      3.368      5.927
REMARK INTER + INTRA:         -12.627
REMARK INTER:                 -10.028
REMARK INTRA:                  -2.599
REMARK UNBOUND:                -0.690
REMARK SMILES COC(=O)c1cccc(CCN(C)Cc2ccccc2)c1
REMARK SMILES IDX 10 1 11 2 12 3 13 4 14 5 15 6 16 7 20 8 17 9 19 10 18 11
REMARK SMILES IDX 9 12 8 13 21 14 7 15 5 16 6 17 3 18 4 19 2 20 1 21
REMARK H PARENT
REMARK INDEX MAP 4 1 3 2 2 3 1 4 15 5 16 6 17 7 21 8 18 9 20 10 19 11 5 12
REMARK INDEX MAP 6 13 10 14 7 15 9 16 8 17 11 18 12 19 13 20 14 21
ROOT
ATOM      1  C   UNL     1     135.844 121.657 125.027  1.00  0.00    +0.051 C 
ENDROOT
BRANCH   1   2
ATOM      2  C   UNL     1     134.972 122.089 126.220  1.00  0.00    +0.089 C 
BRANCH   2   3
ATOM      3  N   UNL     1     133.510 122.045 126.032  1.00  0.00    -0.302 NA
ATOM      4  C   UNL     1     132.891 120.962 126.794  1.00  0.00    +0.105 C 
BRANCH   3   5
ATOM      5  C   UNL     1     132.830 123.322 126.303  1.00  0.00    +0.119 C 
BRANCH   5   6
ATOM      6  C   UNL     1     132.619 124.176 125.072  1.00  0.00    -0.034 A 
ATOM      7  C   UNL     1     132.823 125.563 125.126  1.00  0.00    +0.005 A 
ATOM      8  C   UNL     1     132.209 123.599 123.860  1.00  0.00    +0.005 A 
ATOM      9  C   UNL     1     132.618 126.355 123.995  1.00  0.00    +0.000 A 
ATOM     10  C   UNL     1     132.002 124.392 122.732  1.00  0.00    +0.000 A 
ATOM     11  C   UNL     1     132.207 125.769 122.799  1.00  0.00    +0.000 A 
ENDBRANCH   5   6
ENDBRANCH   3   5
ENDBRANCH   2   3
ENDBRANCH   1   2
BRANCH   1  12
ATOM     12  C   UNL     1     135.762 122.651 123.891  1.00  0.00    -0.046 A 
ATOM     13  C   UNL     1     135.359 122.244 122.613  1.00  0.00    +0.004 A 
ATOM     14  C   UNL     1     136.061 124.004 124.114  1.00  0.00    +0.019 A 
ATOM     15  C   UNL     1     135.268 123.170 121.573  1.00  0.00    +0.001 A 
ATOM     16  C   UNL     1     135.973 124.938 123.072  1.00  0.00    +0.060 A 
ATOM     17  C   UNL     1     135.575 124.513 121.798  1.00  0.00    +0.016 A 
BRANCH  16  18
ATOM     18  C   UNL     1     136.316 126.356 123.371  1.00  0.00    +0.337 C 
ATOM     19  O   UNL     1     136.044 127.288 122.630  1.00  0.00    -0.246 OA
BRANCH  18  20
ATOM     20  O   UNL     1     136.962 126.453 124.559  1.00  0.00    -0.465 OA
ATOM     21  C   UNL     1     136.576 127.585 125.338  1.00  0.00    +0.282 C 
ENDBRANCH  18  20
ENDBRANCH  16  18
ENDBRANCH   1  12
TORSDOF 7
ENDMDL
MODEL 5
REMARK VINA RESULT:    -8.420      2.957      6.731
REMARK INTER + INTRA:         -12.556
REMARK INTER:                 -11.364
REMARK INTRA:                  -1.192
REMARK UNBOUND:                -0.690
REMARK SMILES COC(=O)c1cccc(CCN(C)Cc2ccccc2)c1
REMARK SMILES IDX 10 1 11 2 12 3 13 4 14 5 15 6 16 7 20 8 17 9 19 10 18 11
REMARK SMILES IDX 9 12 8 13 21 14 7 15 5 16 6 17 3 18 4 19 2 20 1 21
REMARK H PARENT
REMARK INDEX MAP 4 1 3 2 2 3 1 4 15 5 16 6 17 7 21 8 18 9 20 10 19 11 5 12
REMARK INDEX MAP 6 13 10 14 7 15 9 16 8 17 11 18 12 19 13 20 14 21
ROOT
ATOM      1  C   UNL     1     132.444 125.959 123.014  1.00  0.00    +0.051 C 
ENDROOT
BRANCH   1   2
ATOM      2  C   UNL     1     132.731 125.940 124.526  1.00  0.00    +0.089 C 
BRANCH   2   3
ATOM      3  N   UNL     1     132.221 124.785 125.290  1.00  0.00    -0.302 NA
ATOM      4  C   UNL     1     130.830 124.970 125.699  1.00  0.00    +0.105 C 
BRANCH   3   5
ATOM      5  C   UNL     1     132.391 123.491 124.608  1.00  0.00    +0.119 C 
BRANCH   5   6
ATOM      6  C   UNL     1     133.694 122.795 124.936  1.00  0.00    -0.034 A 
ATOM      7  C   UNL     1     134.737 122.763 123.998  1.00  0.00    +0.005 A 
ATOM      8  C   UNL     1     133.879 122.164 126.176  1.00  0.00    +0.005 A 
ATOM      9  C   UNL     1     135.937 122.112 124.293  1.00  0.00    +0.000 A 
ATOM     10  C   UNL     1     135.077 121.511 126.467  1.00  0.00    +0.000 A 
ATOM     11  C   UNL     1     136.105 121.486 125.527  1.00  0.00    +0.000 A 
ENDBRANCH   5   6
ENDBRANCH   3   5
ENDBRANCH   2   3
ENDBRANCH   1   2
BRANCH   1  12
ATOM     12  C   UNL     1     133.708 125.769 122.206  1.00  0.00    -0.046 A 
ATOM     13  C   UNL     1     134.964 126.020 122.772  1.00  0.00    +0.004 A 
ATOM     14  C   UNL     1     133.636 125.308 120.883  1.00  0.00    +0.019 A 
ATOM     15  C   UNL     1     136.127 125.824 122.027  1.00  0.00    +0.001 A 
ATOM     16  C   UNL     1     134.801 125.111 120.128  1.00  0.00    +0.060 A 
ATOM     17  C   UNL     1     136.049 125.373 120.708  1.00  0.00    +0.016 A 
BRANCH  16  18
ATOM     18  C   UNL     1     134.656 124.632 118.725  1.00  0.00    +0.337 C 
ATOM     19  O   UNL     1     134.233 125.326 117.815  1.00  0.00    -0.246 OA
BRANCH  18  20
ATOM     20  O   UNL     1     135.053 123.339 118.617  1.00  0.00    -0.465 OA
ATOM     21  C   UNL     1     134.899 122.794 117.306  1.00  0.00    +0.282 C 
ENDBRANCH  18  20
ENDBRANCH  16  18
ENDBRANCH   1  12
TORSDOF 7
ENDMDL
MODEL 6
REMARK VINA RESULT:    -8.323      3.046      6.581
REMARK INTER + INTRA:         -12.418
REMARK INTER:                 -11.136
REMARK INTRA:                  -1.282
REMARK UNBOUND:                -0.690
REMARK SMILES COC(=O)c1cccc(CCN(C)Cc2ccccc2)c1
REMARK SMILES IDX 10 1 11 2 12 3 13 4 14 5 15 6 16 7 20 8 17 9 19 10 18 11
REMARK SMILES IDX 9 12 8 13 21 14 7 15 5 16 6 17 3 18 4 19 2 20 1 21
REMARK H PARENT
REMARK INDEX MAP 4 1 3 2 2 3 1 4 15 5 16 6 17 7 21 8 18 9 20 10 19 11 5 12
REMARK INDEX MAP 6 13 10 14 7 15 9 16 8 17 11 18 12 19 13 20 14 21
ROOT
ATOM      1  C   UNL     1     132.227 125.920 123.083  1.00  0.00    +0.051 C 
ENDROOT
BRANCH   1   2
ATOM      2  C   UNL     1     132.356 125.966 124.616  1.00  0.00    +0.089 C 
BRANCH   2   3
ATOM      3  N   UNL     1     132.135 124.703 125.345  1.00  0.00    -0.302 NA
ATOM      4  C   UNL     1     130.807 124.645 125.952  1.00  0.00    +0.105 C 
BRANCH   3   5
ATOM      5  C   UNL     1     132.389 123.494 124.544  1.00  0.00    +0.119 C 
BRANCH   5   6
ATOM      6  C   UNL     1     133.672 122.778 124.908  1.00  0.00    -0.034 A 
ATOM      7  C   UNL     1     133.812 122.167 126.163  1.00  0.00    +0.005 A 
ATOM      8  C   UNL     1     134.743 122.719 124.003  1.00  0.00    +0.005 A 
ATOM      9  C   UNL     1     134.998 121.515 126.507  1.00  0.00    +0.000 A 
ATOM     10  C   UNL     1     135.928 122.070 124.350  1.00  0.00    +0.000 A 
ATOM     11  C   UNL     1     136.055 121.468 125.600  1.00  0.00    +0.000 A 
ENDBRANCH   5   6
ENDBRANCH   3   5
ENDBRANCH   2   3
ENDBRANCH   1   2
BRANCH   1  12
ATOM     12  C   UNL     1     133.576 125.775 122.416  1.00  0.00    -0.046 A 
ATOM     13  C   UNL     1     134.733 126.277 123.024  1.00  0.00    +0.004 A 
ATOM     14  C   UNL     1     133.686 125.107 121.186  1.00  0.00    +0.019 A 
ATOM     15  C   UNL     1     135.977 126.123 122.411  1.00  0.00    +0.001 A 
ATOM     16  C   UNL     1     134.934 124.951 120.565  1.00  0.00    +0.060 A 
ATOM     17  C   UNL     1     136.080 125.465 121.185  1.00  0.00    +0.016 A 
BRANCH  16  18
ATOM     18  C   UNL     1     134.982 124.243 119.256  1.00  0.00    +0.337 C 
ATOM     19  O   UNL     1     135.576 123.191 119.078  1.00  0.00    -0.246 OA
BRANCH  18  20
ATOM     20  O   UNL     1     134.287 124.928 118.314  1.00  0.00    -0.465 OA
ATOM     21  C   UNL     1     133.695 124.100 117.314  1.00  0.00    +0.282 C 
ENDBRANCH  18  20
ENDBRANCH  16  18
ENDBRANCH   1  12
TORSDOF 7
ENDMDL
MODEL 7
REMARK VINA RESULT:    -8.111      3.058      6.987
REMARK INTER + INTRA:         -12.119
REMARK INTER:                 -11.081
REMARK INTRA:                  -1.038
REMARK UNBOUND:                -0.690
REMARK SMILES COC(=O)c1cccc(CCN(C)Cc2ccccc2)c1
REMARK SMILES IDX 10 1 11 2 12 3 13 4 14 5 15 6 16 7 20 8 17 9 19 10 18 11
REMARK SMILES IDX 9 12 8 13 21 14 7 15 5 16 6 17 3 18 4 19 2 20 1 21
REMARK H PARENT
REMARK INDEX MAP 4 1 3 2 2 3 1 4 15 5 16 6 17 7 21 8 18 9 20 10 19 11 5 12
REMARK INDEX MAP 6 13 10 14 7 15 9 16 8 17 11 18 12 19 13 20 14 21
ROOT
ATOM      1  C   UNL     1     136.089 122.909 123.212  1.00  0.00    +0.051 C 
ENDROOT
BRANCH   1   2
ATOM      2  C   UNL     1     135.195 121.855 123.891  1.00  0.00    +0.089 C 
BRANCH   2   3
ATOM      3  N   UNL     1     135.642 121.342 125.200  1.00  0.00    -0.302 NA
ATOM      4  C   UNL     1     136.862 122.000 125.661  1.00  0.00    +0.105 C 
BRANCH   3   5
ATOM      5  C   UNL     1     134.607 121.383 126.247  1.00  0.00    +0.119 C 
BRANCH   5   6
ATOM      6  C   UNL     1     133.570 122.466 126.038  1.00  0.00    -0.034 A 
ATOM      7  C   UNL     1     133.819 123.779 126.464  1.00  0.00    +0.005 A 
ATOM      8  C   UNL     1     132.342 122.175 125.423  1.00  0.00    +0.005 A 
ATOM      9  C   UNL     1     132.860 124.777 126.284  1.00  0.00    +0.000 A 
ATOM     10  C   UNL     1     131.384 123.173 125.247  1.00  0.00    +0.000 A 
ATOM     11  C   UNL     1     131.643 124.473 125.676  1.00  0.00    +0.000 A 
ENDBRANCH   5   6
ENDBRANCH   3   5
ENDBRANCH   2   3
ENDBRANCH   1   2
BRANCH   1  12
ATOM     12  C   UNL     1     135.279 123.858 122.359  1.00  0.00    -0.046 A 
ATOM     13  C   UNL     1     134.497 124.859 122.947  1.00  0.00    +0.004 A 
ATOM     14  C   UNL     1     135.325 123.762 120.959  1.00  0.00    +0.019 A 
ATOM     15  C   UNL     1     133.765 125.743 122.153  1.00  0.00    +0.001 A 
ATOM     16  C   UNL     1     134.591 124.647 120.156  1.00  0.00    +0.060 A 
ATOM     17  C   UNL     1     133.809 125.638 120.762  1.00  0.00    +0.016 A 
BRANCH  16  18
ATOM     18  C   UNL     1     134.673 124.485 118.678  1.00  0.00    +0.337 C 
ATOM     19  O   UNL     1     134.218 125.293 117.883  1.00  0.00    -0.246 OA
BRANCH  18  20
ATOM     20  O   UNL     1     135.310 123.332 118.357  1.00  0.00    -0.465 OA
ATOM     21  C   UNL     1     134.587 122.506 117.443  1.00  0.00    +0.282 C 
ENDBRANCH  18  20
ENDBRANCH  16  18
ENDBRANCH   1  12
TORSDOF 7
ENDMDL
MODEL 8
REMARK VINA RESULT:    -8.090      3.290      6.811
REMARK INTER + INTRA:         -12.090
REMARK INTER:                 -11.042
REMARK INTRA:                  -1.048
REMARK UNBOUND:                -0.690
REMARK SMILES COC(=O)c1cccc(CCN(C)Cc2ccccc2)c1
REMARK SMILES IDX 10 1 11 2 12 3 13 4 14 5 15 6 16 7 20 8 17 9 19 10 18 11
REMARK SMILES IDX 9 12 8 13 21 14 7 15 5 16 6 17 3 18 4 19 2 20 1 21
REMARK H PARENT
REMARK INDEX MAP 4 1 3 2 2 3 1 4 15 5 16 6 17 7 21 8 18 9 20 10 19 11 5 12
REMARK INDEX MAP 6 13 10 14 7 15 9 16 8 17 11 18 12 19 13 20 14 21
ROOT
ATOM      1  C   UNL     1     136.644 126.342 122.464  1.00  0.00    +0.051 C 
ENDROOT
BRANCH   1   2
ATOM      2  C   UNL     1     136.390 126.624 123.956  1.00  0.00    +0.089 C 
BRANCH   2   3
ATOM      3  N   UNL     1     136.977 125.680 124.926  1.00  0.00    -0.302 NA
ATOM      4  C   UNL     1     138.160 126.234 125.582  1.00  0.00    +0.105 C 
BRANCH   3   5
ATOM      5  C   UNL     1     136.022 125.173 125.926  1.00  0.00    +0.119 C 
BRANCH   5   6
ATOM      6  C   UNL     1     135.640 123.723 125.725  1.00  0.00    -0.034 A 
ATOM      7  C   UNL     1     135.914 123.078 124.510  1.00  0.00    +0.005 A 
ATOM      8  C   UNL     1     135.001 123.001 126.745  1.00  0.00    +0.005 A 
ATOM      9  C   UNL     1     135.553 121.743 124.317  1.00  0.00    +0.000 A 
ATOM     10  C   UNL     1     134.638 121.669 126.550  1.00  0.00    +0.000 A 
ATOM     11  C   UNL     1     134.914 121.040 125.337  1.00  0.00    +0.000 A 
ENDBRANCH   5   6
ENDBRANCH   3   5
ENDBRANCH   2   3
ENDBRANCH   1   2
BRANCH   1  12
ATOM     12  C   UNL     1     135.409 125.798 121.783  1.00  0.00    -0.046 A 
ATOM     13  C   UNL     1     134.180 125.761 122.453  1.00  0.00    +0.004 A 
ATOM     14  C   UNL     1     135.476 125.350 120.455  1.00  0.00    +0.019 A 
ATOM     15  C   UNL     1     133.040 125.275 121.811  1.00  0.00    +0.001 A 
ATOM     16  C   UNL     1     134.335 124.859 119.805  1.00  0.00    +0.060 A 
ATOM     17  C   UNL     1     133.115 124.823 120.493  1.00  0.00    +0.016 A 
BRANCH  16  18
ATOM     18  C   UNL     1     134.475 124.388 118.400  1.00  0.00    +0.337 C 
ATOM     19  O   UNL     1     133.957 124.945 117.445  1.00  0.00    -0.246 OA
BRANCH  18  20
ATOM     20  O   UNL     1     135.243 123.271 118.343  1.00  0.00    -0.465 OA
ATOM     21  C   UNL     1     134.712 122.245 117.505  1.00  0.00    +0.282 C 
ENDBRANCH  18  20
ENDBRANCH  16  18
ENDBRANCH   1  12
TORSDOF 7
ENDMDL
MODEL 9
REMARK VINA RESULT:    -7.903      4.558      7.474
REMARK INTER + INTRA:         -11.826
REMARK INTER:                 -11.303
REMARK INTRA:                  -0.523
REMARK UNBOUND:                -0.690
REMARK SMILES COC(=O)c1cccc(CCN(C)Cc2ccccc2)c1
REMARK SMILES IDX 10 1 11 2 12 3 13 4 14 5 15 6 16 7 20 8 17 9 19 10 18 11
REMARK SMILES IDX 9 12 8 13 21 14 7 15 5 16 6 17 3 18 4 19 2 20 1 21
REMARK H PARENT
REMARK INDEX MAP 4 1 3 2 2 3 1 4 15 5 16 6 17 7 21 8 18 9 20 10 19 11 5 12
REMARK INDEX MAP 6 13 10 14 7 15 9 16 8 17 11 18 12 19 13 20 14 21
ROOT
ATOM      1  C   UNL     1     131.835 125.254 122.953  1.00  0.00    +0.051 C 
ENDROOT
BRANCH   1   2
ATOM      2  C   UNL     1     131.458 126.294 124.024  1.00  0.00    +0.089 C 
BRANCH   2   3
ATOM      3  N   UNL     1     130.142 126.141 124.672  1.00  0.00    -0.302 NA
ATOM      4  C   UNL     1     130.207 125.280 125.850  1.00  0.00    +0.105 C 
BRANCH   3   5
ATOM      5  C   UNL     1     129.481 127.416 125.000  1.00  0.00    +0.119 C 
BRANCH   5   6
ATOM      6  C   UNL     1     128.801 128.073 123.819  1.00  0.00    -0.034 A 
ATOM      7  C   UNL     1     127.806 127.391 123.103  1.00  0.00    +0.005 A 
ATOM      8  C   UNL     1     129.157 129.370 123.416  1.00  0.00    +0.005 A 
ATOM      9  C   UNL     1     127.184 127.990 122.006  1.00  0.00    +0.000 A 
ATOM     10  C   UNL     1     128.536 129.965 122.318  1.00  0.00    +0.000 A 
ATOM     11  C   UNL     1     127.550 129.276 121.614  1.00  0.00    +0.000 A 
ENDBRANCH   5   6
ENDBRANCH   3   5
ENDBRANCH   2   3
ENDBRANCH   1   2
BRANCH   1  12
ATOM     12  C   UNL     1     133.297 125.347 122.579  1.00  0.00    -0.046 A 
ATOM     13  C   UNL     1     133.684 125.584 121.255  1.00  0.00    +0.004 A 
ATOM     14  C   UNL     1     134.286 125.224 123.568  1.00  0.00    +0.019 A 
ATOM     15  C   UNL     1     135.035 125.687 120.921  1.00  0.00    +0.001 A 
ATOM     16  C   UNL     1     135.646 125.324 123.237  1.00  0.00    +0.060 A 
ATOM     17  C   UNL     1     136.014 125.555 121.906  1.00  0.00    +0.016 A 
BRANCH  16  18
ATOM     18  C   UNL     1     136.646 125.172 124.330  1.00  0.00    +0.337 C 
ATOM     19  O   UNL     1     136.822 124.131 124.945  1.00  0.00    -0.246 OA
BRANCH  18  20
ATOM     20  O   UNL     1     137.312 126.335 124.535  1.00  0.00    -0.465 OA
ATOM     21  C   UNL     1     136.524 127.353 125.151  1.00  0.00    +0.282 C 
ENDBRANCH  18  20
ENDBRANCH  16  18
ENDBRANCH   1  12
TORSDOF 7
ENDMDL
MODEL 10
REMARK VINA RESULT:    -7.716      3.545      6.566
REMARK INTER + INTRA:         -11.563
REMARK INTER:                 -10.241
REMARK INTRA:                  -1.322
REMARK UNBOUND:                -0.690
REMARK SMILES COC(=O)c1cccc(CCN(C)Cc2ccccc2)c1
REMARK SMILES IDX 10 1 11 2 12 3 13 4 14 5 15 6 16 7 20 8 17 9 19 10 18 11
REMARK SMILES IDX 9 12 8 13 21 14 7 15 5 16 6 17 3 18 4 19 2 20 1 21
REMARK H PARENT
REMARK INDEX MAP 4 1 3 2 2 3 1 4 15 5 16 6 17 7 21 8 18 9 20 10 19 11 5 12
REMARK INDEX MAP 6 13 10 14 7 15 9 16 8 17 11 18 12 19 13 20 14 21
ROOT
ATOM      1  C   UNL     1     132.259 124.056 123.073  1.00  0.00    +0.051 C 
ENDROOT
BRANCH   1   2
ATOM      2  C   UNL     1     131.631 124.673 124.336  1.00  0.00    +0.089 C 
BRANCH   2   3
ATOM      3  N   UNL     1     131.751 123.903 125.588  1.00  0.00    -0.302 NA
ATOM      4  C   UNL     1     130.549 124.004 126.412  1.00  0.00    +0.105 C 
BRANCH   3   5
ATOM      5  C   UNL     1     132.125 122.492 125.392  1.00  0.00    +0.119 C 
BRANCH   5   6
ATOM      6  C   UNL     1     133.525 122.160 125.862  1.00  0.00    -0.034 A 
ATOM      7  C   UNL     1     134.303 121.222 125.166  1.00  0.00    +0.005 A 
ATOM      8  C   UNL     1     134.065 122.776 127.001  1.00  0.00    +0.005 A 
ATOM      9  C   UNL     1     135.591 120.905 125.602  1.00  0.00    +0.000 A 
ATOM     10  C   UNL     1     135.351 122.455 127.438  1.00  0.00    +0.000 A 
ATOM     11  C   UNL     1     136.113 121.521 126.738  1.00  0.00    +0.000 A 
ENDBRANCH   5   6
ENDBRANCH   3   5
ENDBRANCH   2   3
ENDBRANCH   1   2
BRANCH   1  12
ATOM     12  C   UNL     1     133.581 124.706 122.735  1.00  0.00    -0.046 A 
ATOM     13  C   UNL     1     133.804 125.260 121.469  1.00  0.00    +0.004 A 
ATOM     14  C   UNL     1     134.595 124.787 123.703  1.00  0.00    +0.019 A 
ATOM     15  C   UNL     1     135.021 125.875 121.170  1.00  0.00    +0.001 A 
ATOM     16  C   UNL     1     135.820 125.402 123.408  1.00  0.00    +0.060 A 
ATOM     17  C   UNL     1     136.028 125.945 122.134  1.00  0.00    +0.016 A 
BRANCH  16  18
ATOM     18  C   UNL     1     136.858 125.444 124.474  1.00  0.00    +0.337 C 
ATOM     19  O   UNL     1     137.197 124.469 125.127  1.00  0.00    -0.246 OA
BRANCH  18  20
ATOM     20  O   UNL     1     137.356 126.698 124.610  1.00  0.00    -0.465 OA
ATOM     21  C   UNL     1     136.478 127.601 125.283  1.00  0.00    +0.282 C 
ENDBRANCH  18  20
ENDBRANCH  16  18
ENDBRANCH   1  12
TORSDOF 7
ENDMDL
MODEL 11
REMARK VINA RESULT:    -7.685      2.707      4.563
REMARK INTER + INTRA:         -11.519
REMARK INTER:                 -10.936
REMARK INTRA:                  -0.583
REMARK UNBOUND:                -0.690
REMARK SMILES COC(=O)c1cccc(CCN(C)Cc2ccccc2)c1
REMARK SMILES IDX 10 1 11 2 12 3 13 4 14 5 15 6 16 7 20 8 17 9 19 10 18 11
REMARK SMILES IDX 9 12 8 13 21 14 7 15 5 16 6 17 3 18 4 19 2 20 1 21
REMARK H PARENT
REMARK INDEX MAP 4 1 3 2 2 3 1 4 15 5 16 6 17 7 21 8 18 9 20 10 19 11 5 12
REMARK INDEX MAP 6 13 10 14 7 15 9 16 8 17 11 18 12 19 13 20 14 21
ROOT
ATOM      1  C   UNL     1     132.609 124.065 124.804  1.00  0.00    +0.051 C 
ENDROOT
BRANCH   1   2
ATOM      2  C   UNL     1     133.947 124.814 124.945  1.00  0.00    +0.089 C 
BRANCH   2   3
ATOM      3  N   UNL     1     135.076 124.326 124.131  1.00  0.00    -0.302 NA
ATOM      4  C   UNL     1     136.196 123.879 124.957  1.00  0.00    +0.105 C 
BRANCH   3   5
ATOM      5  C   UNL     1     134.709 123.287 123.154  1.00  0.00    +0.119 C 
BRANCH   5   6
ATOM      6  C   UNL     1     134.751 123.757 121.716  1.00  0.00    -0.034 A 
ATOM      7  C   UNL     1     134.118 124.952 121.342  1.00  0.00    +0.005 A 
ATOM      8  C   UNL     1     135.414 123.005 120.735  1.00  0.00    +0.005 A 
ATOM      9  C   UNL     1     134.145 125.383 120.014  1.00  0.00    +0.000 A 
ATOM     10  C   UNL     1     135.437 123.436 119.408  1.00  0.00    +0.000 A 
ATOM     11  C   UNL     1     134.804 124.624 119.048  1.00  0.00    +0.000 A 
ENDBRANCH   5   6
ENDBRANCH   3   5
ENDBRANCH   2   3
ENDBRANCH   1   2
BRANCH   1  12
ATOM     12  C   UNL     1     131.595 124.545 125.818  1.00  0.00    -0.046 A 
ATOM     13  C   UNL     1     130.716 123.645 126.432  1.00  0.00    +0.004 A 
ATOM     14  C   UNL     1     131.543 125.901 126.175  1.00  0.00    +0.019 A 
ATOM     15  C   UNL     1     129.794 124.092 127.379  1.00  0.00    +0.001 A 
ATOM     16  C   UNL     1     130.618 126.357 127.125  1.00  0.00    +0.060 A 
ATOM     17  C   UNL     1     129.742 125.443 127.725  1.00  0.00    +0.016 A 
BRANCH  16  18
ATOM     18  C   UNL     1     130.606 127.810 127.452  1.00  0.00    +0.337 C 
ATOM     19  O   UNL     1     129.600 128.501 127.419  1.00  0.00    -0.246 OA
BRANCH  18  20
ATOM     20  O   UNL     1     131.850 128.237 127.781  1.00  0.00    -0.465 OA
ATOM     21  C   UNL     1     131.918 128.912 129.037  1.00  0.00    +0.282 C 
ENDBRANCH  18  20
ENDBRANCH  16  18
ENDBRANCH   1  12
TORSDOF 7
ENDMDL
MODEL 12
REMARK VINA RESULT:    -7.645      3.203      5.312
REMARK INTER + INTRA:         -11.463
REMARK INTER:                 -10.305
REMARK INTRA:                  -1.159
REMARK UNBOUND:                -0.690
REMARK SMILES COC(=O)c1cccc(CCN(C)Cc2ccccc2)c1
REMARK SMILES IDX 10 1 11 2 12 3 13 4 14 5 15 6 16 7 20 8 17 9 19 10 18 11
REMARK SMILES IDX 9 12 8 13 21 14 7 15 5 16 6 17 3 18 4 19 2 20 1 21
REMARK H PARENT
REMARK INDEX MAP 4 1 3 2 2 3 1 4 15 5 16 6 17 7 21 8 18 9 20 10 19 11 5 12
REMARK INDEX MAP 6 13 10 14 7 15 9 16 8 17 11 18 12 19 13 20 14 21
ROOT
ATOM      1  C   UNL     1     132.694 124.542 122.508  1.00  0.00    +0.051 C 
ENDROOT
BRANCH   1   2
ATOM      2  C   UNL     1     133.441 125.430 121.496  1.00  0.00    +0.089 C 
BRANCH   2   3
ATOM      3  N   UNL     1     134.568 124.815 120.770  1.00  0.00    -0.302 NA
ATOM      4  C   UNL     1     134.591 125.203 119.361  1.00  0.00    +0.105 C 
BRANCH   3   5
ATOM      5  C   UNL     1     135.883 125.049 121.391  1.00  0.00    +0.119 C 
BRANCH   5   6
ATOM      6  C   UNL     1     136.037 124.410 122.754  1.00  0.00    -0.034 A 
ATOM      7  C   UNL     1     136.275 125.204 123.887  1.00  0.00    +0.005 A 
ATOM      8  C   UNL     1     135.953 123.018 122.909  1.00  0.00    +0.005 A 
ATOM      9  C   UNL     1     136.429 124.617 125.144  1.00  0.00    +0.000 A 
ATOM     10  C   UNL     1     136.110 122.433 124.165  1.00  0.00    +0.000 A 
ATOM     11  C   UNL     1     136.347 123.233 125.282  1.00  0.00    +0.000 A 
ENDBRANCH   5   6
ENDBRANCH   3   5
ENDBRANCH   2   3
ENDBRANCH   1   2
BRANCH   1  12
ATOM     12  C   UNL     1     132.169 125.350 123.673  1.00  0.00    -0.046 A 
ATOM     13  C   UNL     1     132.692 125.174 124.960  1.00  0.00    +0.004 A 
ATOM     14  C   UNL     1     131.165 126.309 123.470  1.00  0.00    +0.019 A 
ATOM     15  C   UNL     1     132.215 125.936 126.027  1.00  0.00    +0.001 A 
ATOM     16  C   UNL     1     130.680 127.077 124.540  1.00  0.00    +0.060 A 
ATOM     17  C   UNL     1     131.211 126.883 125.821  1.00  0.00    +0.016 A 
BRANCH  16  18
ATOM     18  C   UNL     1     129.606 128.069 124.260  1.00  0.00    +0.337 C 
ATOM     19  O   UNL     1     129.716 129.265 124.484  1.00  0.00    -0.246 OA
BRANCH  18  20
ATOM     20  O   UNL     1     128.514 127.460 123.736  1.00  0.00    -0.465 OA
ATOM     21  C   UNL     1     127.796 128.262 122.799  1.00  0.00    +0.282 C 
ENDBRANCH  18  20
ENDBRANCH  16  18
ENDBRANCH   1  12
TORSDOF 7
ENDMDL
MODEL 13
REMARK VINA RESULT:    -7.563      3.379      6.033
REMARK INTER + INTRA:         -11.348
REMARK INTER:                 -10.341
REMARK INTRA:                  -1.007
REMARK UNBOUND:                -0.690
REMARK SMILES COC(=O)c1cccc(CCN(C)Cc2ccccc2)c1
REMARK SMILES IDX 10 1 11 2 12 3 13 4 14 5 15 6 16 7 20 8 17 9 19 10 18 11
REMARK SMILES IDX 9 12 8 13 21 14 7 15 5 16 6 17 3 18 4 19 2 20 1 21
REMARK H PARENT
REMARK INDEX MAP 4 1 3 2 2 3 1 4 15 5 16 6 17 7 21 8 18 9 20 10 19 11 5 12
REMARK INDEX MAP 6 13 10 14 7 15 9 16 8 17 11 18 12 19 13 20 14 21
ROOT
ATOM      1  C   UNL     1     132.363 124.218 123.366  1.00  0.00    +0.051 C 
ENDROOT
BRANCH   1   2
ATOM      2  C   UNL     1     133.474 124.716 122.425  1.00  0.00    +0.089 C 
BRANCH   2   3
ATOM      3  N   UNL     1     134.690 123.886 122.325  1.00  0.00    -0.302 NA
ATOM      4  C   UNL     1     135.335 124.013 121.019  1.00  0.00    +0.105 C 
BRANCH   3   5
ATOM      5  C   UNL     1     135.664 124.114 123.406  1.00  0.00    +0.119 C 
BRANCH   5   6
ATOM      6  C   UNL     1     135.468 123.212 124.605  1.00  0.00    -0.034 A 
ATOM      7  C   UNL     1     135.342 121.825 124.436  1.00  0.00    +0.005 A 
ATOM      8  C   UNL     1     135.401 123.745 125.901  1.00  0.00    +0.005 A 
ATOM      9  C   UNL     1     135.150 120.990 125.539  1.00  0.00    +0.000 A 
ATOM     10  C   UNL     1     135.205 122.910 127.001  1.00  0.00    +0.000 A 
ATOM     11  C   UNL     1     135.081 121.534 126.820  1.00  0.00    +0.000 A 
ENDBRANCH   5   6
ENDBRANCH   3   5
ENDBRANCH   2   3
ENDBRANCH   1   2
BRANCH   1  12
ATOM     12  C   UNL     1     131.839 125.330 124.246  1.00  0.00    -0.046 A 
ATOM     13  C   UNL     1     132.127 125.355 125.615  1.00  0.00    +0.004 A 
ATOM     14  C   UNL     1     131.080 126.371 123.689  1.00  0.00    +0.019 A 
ATOM     15  C   UNL     1     131.656 126.394 126.418  1.00  0.00    +0.001 A 
ATOM     16  C   UNL     1     130.602 127.417 124.491  1.00  0.00    +0.060 A 
ATOM     17  C   UNL     1     130.894 127.422 125.861  1.00  0.00    +0.016 A 
BRANCH  16  18
ATOM     18  C   UNL     1     129.791 128.485 123.842  1.00  0.00    +0.337 C 
ATOM     19  O   UNL     1     130.115 129.662 123.822  1.00  0.00    -0.246 OA
BRANCH  18  20
ATOM     20  O   UNL     1     128.666 127.965 123.292  1.00  0.00    -0.465 OA
ATOM     21  C   UNL     1     127.938 128.887 122.480  1.00  0.00    +0.282 C 
ENDBRANCH  18  20
ENDBRANCH  16  18
ENDBRANCH   1  12
TORSDOF 7
ENDMDL
MODEL 14
REMARK VINA RESULT:    -7.417      3.465      8.011
REMARK INTER + INTRA:         -11.142
REMARK INTER:                 -10.478
REMARK INTRA:                  -0.664
REMARK UNBOUND:                -0.690
REMARK SMILES COC(=O)c1cccc(CCN(C)Cc2ccccc2)c1
REMARK SMILES IDX 10 1 11 2 12 3 13 4 14 5 15 6 16 7 20 8 17 9 19 10 18 11
REMARK SMILES IDX 9 12 8 13 21 14 7 15 5 16 6 17 3 18 4 19 2 20 1 21
REMARK H PARENT
REMARK INDEX MAP 4 1 3 2 2 3 1 4 15 5 16 6 17 7 21 8 18 9 20 10 19 11 5 12
REMARK INDEX MAP 6 13 10 14 7 15 9 16 8 17 11 18 12 19 13 20 14 21
ROOT
ATOM      1  C   UNL     1     132.693 125.756 123.241  1.00  0.00    +0.051 C 
ENDROOT
BRANCH   1   2
ATOM      2  C   UNL     1     132.560 125.104 124.629  1.00  0.00    +0.089 C 
BRANCH   2   3
ATOM      3  N   UNL     1     131.326 124.341 124.895  1.00  0.00    -0.302 NA
ATOM      4  C   UNL     1     131.525 122.902 124.735  1.00  0.00    +0.105 C 
BRANCH   3   5
ATOM      5  C   UNL     1     130.707 124.635 126.199  1.00  0.00    +0.119 C 
BRANCH   5   6
ATOM      6  C   UNL     1     130.140 126.034 126.304  1.00  0.00    -0.034 A 
ATOM      7  C   UNL     1     130.574 126.901 127.318  1.00  0.00    +0.005 A 
ATOM      8  C   UNL     1     129.167 126.484 125.398  1.00  0.00    +0.005 A 
ATOM      9  C   UNL     1     130.045 128.189 127.425  1.00  0.00    +0.000 A 
ATOM     10  C   UNL     1     128.637 127.770 125.509  1.00  0.00    +0.000 A 
ATOM     11  C   UNL     1     129.076 128.622 126.521  1.00  0.00    +0.000 A 
ENDBRANCH   5   6
ENDBRANCH   3   5
ENDBRANCH   2   3
ENDBRANCH   1   2
BRANCH   1  12
ATOM     12  C   UNL     1     133.623 124.969 122.344  1.00  0.00    -0.046 A 
ATOM     13  C   UNL     1     134.444 123.965 122.870  1.00  0.00    +0.004 A 
ATOM     14  C   UNL     1     133.651 125.221 120.964  1.00  0.00    +0.019 A 
ATOM     15  C   UNL     1     135.287 123.231 122.034  1.00  0.00    +0.001 A 
ATOM     16  C   UNL     1     134.496 124.488 120.119  1.00  0.00    +0.060 A 
ATOM     17  C   UNL     1     135.316 123.491 120.663  1.00  0.00    +0.016 A 
BRANCH  16  18
ATOM     18  C   UNL     1     134.488 124.811 118.665  1.00  0.00    +0.337 C 
ATOM     19  O   UNL     1     134.454 125.950 118.227  1.00  0.00    -0.246 OA
BRANCH  18  20
ATOM     20  O   UNL     1     134.520 123.677 117.922  1.00  0.00    -0.465 OA
ATOM     21  C   UNL     1     133.468 123.586 116.960  1.00  0.00    +0.282 C 
ENDBRANCH  18  20
ENDBRANCH  16  18
ENDBRANCH   1  12
TORSDOF 7
ENDMDL
MODEL 15
REMARK VINA RESULT:    -7.415      4.633      7.177
REMARK INTER + INTRA:         -11.139
REMARK INTER:                 -10.533
REMARK INTRA:                  -0.606
REMARK UNBOUND:                -0.690
REMARK SMILES COC(=O)c1cccc(CCN(C)Cc2ccccc2)c1
REMARK SMILES IDX 10 1 11 2 12 3 13 4 14 5 15 6 16 7 20 8 17 9 19 10 18 11
REMARK SMILES IDX 9 12 8 13 21 14 7 15 5 16 6 17 3 18 4 19 2 20 1 21
REMARK H PARENT
REMARK INDEX MAP 4 1 3 2 2 3 1 4 15 5 16 6 17 7 21 8 18 9 20 10 19 11 5 12
REMARK INDEX MAP 6 13 10 14 7 15 9 16 8 17 11 18 12 19 13 20 14 21
ROOT
ATOM      1  C   UNL     1     131.075 124.932 125.632  1.00  0.00    +0.051 C 
ENDROOT
BRANCH   1   2
ATOM      2  C   UNL     1     131.156 126.236 126.446  1.00  0.00    +0.089 C 
BRANCH   2   3
ATOM      3  N   UNL     1     130.095 127.235 126.216  1.00  0.00    -0.302 NA
ATOM      4  C   UNL     1     129.644 127.853 127.461  1.00  0.00    +0.105 C 
BRANCH   3   5
ATOM      5  C   UNL     1     130.446 128.268 125.226  1.00  0.00    +0.119 C 
BRANCH   5   6
ATOM      6  C   UNL     1     129.424 128.428 124.121  1.00  0.00    -0.034 A 
ATOM      7  C   UNL     1     128.535 127.385 123.820  1.00  0.00    +0.005 A 
ATOM      8  C   UNL     1     129.352 129.615 123.377  1.00  0.00    +0.005 A 
ATOM      9  C   UNL     1     127.598 127.525 122.795  1.00  0.00    +0.000 A 
ATOM     10  C   UNL     1     128.418 129.752 122.350  1.00  0.00    +0.000 A 
ATOM     11  C   UNL     1     127.541 128.708 122.060  1.00  0.00    +0.000 A 
ENDBRANCH   5   6
ENDBRANCH   3   5
ENDBRANCH   2   3
ENDBRANCH   1   2
BRANCH   1  12
ATOM     12  C   UNL     1     132.374 124.159 125.691  1.00  0.00    -0.046 A 
ATOM     13  C   UNL     1     132.454 122.948 126.389  1.00  0.00    +0.004 A 
ATOM     14  C   UNL     1     133.510 124.637 125.020  1.00  0.00    +0.019 A 
ATOM     15  C   UNL     1     133.651 122.231 126.424  1.00  0.00    +0.001 A 
ATOM     16  C   UNL     1     134.715 123.922 125.053  1.00  0.00    +0.060 A 
ATOM     17  C   UNL     1     134.780 122.715 125.761  1.00  0.00    +0.016 A 
BRANCH  16  18
ATOM     18  C   UNL     1     135.887 124.489 124.330  1.00  0.00    +0.337 C 
ATOM     19  O   UNL     1     135.852 124.850 123.164  1.00  0.00    -0.246 OA
BRANCH  18  20
ATOM     20  O   UNL     1     136.973 124.538 125.141  1.00  0.00    -0.465 OA
ATOM     21  C   UNL     1     137.503 125.851 125.320  1.00  0.00    +0.282 C 
ENDBRANCH  18  20
ENDBRANCH  16  18
ENDBRANCH   1  12
TORSDOF 7
ENDMDL
MODEL 16
REMARK VINA RESULT:    -7.367      3.025      7.662
REMARK INTER + INTRA:         -11.071
REMARK INTER:                 -10.560
REMARK INTRA:                  -0.511
REMARK UNBOUND:                -0.690
REMARK SMILES COC(=O)c1cccc(CCN(C)Cc2ccccc2)c1
REMARK SMILES IDX 10 1 11 2 12 3 13 4 14 5 15 6 16 7 20 8 17 9 19 10 18 11
REMARK SMILES IDX 9 12 8 13 21 14 7 15 5 16 6 17 3 18 4 19 2 20 1 21
REMARK H PARENT
REMARK INDEX MAP 4 1 3 2 2 3 1 4 15 5 16 6 17 7 21 8 18 9 20 10 19 11 5 12
REMARK INDEX MAP 6 13 10 14 7 15 9 16 8 17 11 18 12 19 13 20 14 21
ROOT
ATOM      1  C   UNL     1     135.957 123.811 123.356  1.00  0.00    +0.051 C 
ENDROOT
BRANCH   1   2
ATOM      2  C   UNL     1     134.972 122.850 124.046  1.00  0.00    +0.089 C 
BRANCH   2   3
ATOM      3  N   UNL     1     134.069 123.428 125.059  1.00  0.00    -0.302 NA
ATOM      4  C   UNL     1     134.752 124.398 125.913  1.00  0.00    +0.105 C 
BRANCH   3   5
ATOM      5  C   UNL     1     132.836 124.010 124.502  1.00  0.00    +0.119 C 
BRANCH   5   6
ATOM      6  C   UNL     1     131.798 124.357 125.547  1.00  0.00    -0.034 A 
ATOM      7  C   UNL     1     131.511 125.697 125.845  1.00  0.00    +0.005 A 
ATOM      8  C   UNL     1     131.111 123.347 126.240  1.00  0.00    +0.005 A 
ATOM      9  C   UNL     1     130.562 126.021 126.817  1.00  0.00    +0.000 A 
ATOM     10  C   UNL     1     130.166 123.672 127.213  1.00  0.00    +0.000 A 
ATOM     11  C   UNL     1     129.891 125.008 127.500  1.00  0.00    +0.000 A 
ENDBRANCH   5   6
ENDBRANCH   3   5
ENDBRANCH   2   3
ENDBRANCH   1   2
BRANCH   1  12
ATOM     12  C   UNL     1     135.465 124.220 121.986  1.00  0.00    -0.046 A 
ATOM     13  C   UNL     1     134.931 125.496 121.769  1.00  0.00    +0.004 A 
ATOM     14  C   UNL     1     135.567 123.330 120.906  1.00  0.00    +0.019 A 
ATOM     15  C   UNL     1     134.496 125.873 120.497  1.00  0.00    +0.001 A 
ATOM     16  C   UNL     1     135.130 123.703 119.626  1.00  0.00    +0.060 A 
ATOM     17  C   UNL     1     134.593 124.981 119.429  1.00  0.00    +0.016 A 
BRANCH  16  18
ATOM     18  C   UNL     1     135.254 122.708 118.525  1.00  0.00    +0.337 C 
ATOM     19  O   UNL     1     135.333 121.503 118.709  1.00  0.00    -0.246 OA
BRANCH  18  20
ATOM     20  O   UNL     1     135.269 123.327 117.319  1.00  0.00    -0.465 OA
ATOM     21  C   UNL     1     135.069 122.447 116.213  1.00  0.00    +0.282 C 
ENDBRANCH  18  20
ENDBRANCH  16  18
ENDBRANCH   1  12
TORSDOF 7
ENDMDL
MODEL 17
REMARK VINA RESULT:    -7.365      3.404      5.544
REMARK INTER + INTRA:         -11.068
REMARK INTER:                 -10.249
REMARK INTRA:                  -0.820
REMARK UNBOUND:                -0.690
REMARK SMILES COC(=O)c1cccc(CCN(C)Cc2ccccc2)c1
REMARK SMILES IDX 10 1 11 2 12 3 13 4 14 5 15 6 16 7 20 8 17 9 19 10 18 11
REMARK SMILES IDX 9 12 8 13 21 14 7 15 5 16 6 17 3 18 4 19 2 20 1 21
REMARK H PARENT
REMARK INDEX MAP 4 1 3 2 2 3 1 4 15 5 16 6 17 7 21 8 18 9 20 10 19 11 5 12
REMARK INDEX MAP 6 13 10 14 7 15 9 16 8 17 11 18 12 19 13 20 14 21
ROOT
ATOM      1  C   UNL     1     132.061 123.419 126.211  1.00  0.00    +0.051 C 
ENDROOT
BRANCH   1   2
ATOM      2  C   UNL     1     133.444 124.063 126.419  1.00  0.00    +0.089 C 
BRANCH   2   3
ATOM      3  N   UNL     1     134.566 123.509 125.638  1.00  0.00    -0.302 NA
ATOM      4  C   UNL     1     135.332 122.526 126.401  1.00  0.00    +0.105 C 
BRANCH   3   5
ATOM      5  C   UNL     1     134.173 122.955 124.331  1.00  0.00    +0.119 C 
BRANCH   5   6
ATOM      6  C   UNL     1     134.171 123.974 123.212  1.00  0.00    -0.034 A 
ATOM      7  C   UNL     1     135.376 124.375 122.615  1.00  0.00    +0.005 A 
ATOM      8  C   UNL     1     132.970 124.539 122.758  1.00  0.00    +0.005 A 
ATOM      9  C   UNL     1     135.379 125.323 121.590  1.00  0.00    +0.000 A 
ATOM     10  C   UNL     1     132.975 125.489 121.736  1.00  0.00    +0.000 A 
ATOM     11  C   UNL     1     134.179 125.879 121.152  1.00  0.00    +0.000 A 
ENDBRANCH   5   6
ENDBRANCH   3   5
ENDBRANCH   2   3
ENDBRANCH   1   2
BRANCH   1  12
ATOM     12  C   UNL     1     130.961 124.254 126.826  1.00  0.00    -0.046 A 
ATOM     13  C   UNL     1     129.831 123.647 127.387  1.00  0.00    +0.004 A 
ATOM     14  C   UNL     1     131.076 125.652 126.868  1.00  0.00    +0.019 A 
ATOM     15  C   UNL     1     128.828 124.422 127.969  1.00  0.00    +0.001 A 
ATOM     16  C   UNL     1     130.071 126.437 127.451  1.00  0.00    +0.060 A 
ATOM     17  C   UNL     1     128.944 125.813 128.001  1.00  0.00    +0.016 A 
BRANCH  16  18
ATOM     18  C   UNL     1     130.247 127.915 127.452  1.00  0.00    +0.337 C 
ATOM     19  O   UNL     1     131.140 128.489 128.056  1.00  0.00    -0.246 OA
BRANCH  18  20
ATOM     20  O   UNL     1     129.288 128.513 126.703  1.00  0.00    -0.465 OA
ATOM     21  C   UNL     1     129.649 128.689 125.333  1.00  0.00    +0.282 C 
ENDBRANCH  18  20
ENDBRANCH  16  18
ENDBRANCH   1  12
TORSDOF 7
ENDMDL
MODEL 18
REMARK VINA RESULT:    -7.320      3.512      6.700
REMARK INTER + INTRA:         -11.005
REMARK INTER:                 -10.148
REMARK INTRA:                  -0.857
REMARK UNBOUND:                -0.690
REMARK SMILES COC(=O)c1cccc(CCN(C)Cc2ccccc2)c1
REMARK SMILES IDX 10 1 11 2 12 3 13 4 14 5 15 6 16 7 20 8 17 9 19 10 18 11
REMARK SMILES IDX 9 12 8 13 21 14 7 15 5 16 6 17 3 18 4 19 2 20 1 21
REMARK H PARENT
REMARK INDEX MAP 4 1 3 2 2 3 1 4 15 5 16 6 17 7 21 8 18 9 20 10 19 11 5 12
REMARK INDEX MAP 6 13 10 14 7 15 9 16 8 17 11 18 12 19 13 20 14 21
ROOT
ATOM      1  C   UNL     1     131.741 125.619 123.321  1.00  0.00    +0.051 C 
ENDROOT
BRANCH   1   2
ATOM      2  C   UNL     1     131.617 126.299 124.697  1.00  0.00    +0.089 C 
BRANCH   2   3
ATOM      3  N   UNL     1     131.425 125.417 125.865  1.00  0.00    -0.302 NA
ATOM      4  C   UNL     1     130.291 125.834 126.686  1.00  0.00    +0.105 C 
BRANCH   3   5
ATOM      5  C   UNL     1     131.320 123.988 125.527  1.00  0.00    +0.119 C 
BRANCH   5   6
ATOM      6  C   UNL     1     132.513 123.166 125.967  1.00  0.00    -0.034 A 
ATOM      7  C   UNL     1     133.563 123.765 126.678  1.00  0.00    +0.005 A 
ATOM      8  C   UNL     1     132.593 121.798 125.665  1.00  0.00    +0.005 A 
ATOM      9  C   UNL     1     134.670 123.014 127.076  1.00  0.00    +0.000 A 
ATOM     10  C   UNL     1     133.702 121.049 126.059  1.00  0.00    +0.000 A 
ATOM     11  C   UNL     1     134.739 121.657 126.765  1.00  0.00    +0.000 A 
ENDBRANCH   5   6
ENDBRANCH   3   5
ENDBRANCH   2   3
ENDBRANCH   1   2
BRANCH   1  12
ATOM     12  C   UNL     1     133.167 125.641 122.818  1.00  0.00    -0.046 A 
ATOM     13  C   UNL     1     133.446 125.909 121.472  1.00  0.00    +0.004 A 
ATOM     14  C   UNL     1     134.231 125.420 123.705  1.00  0.00    +0.019 A 
ATOM     15  C   UNL     1     134.766 125.946 121.018  1.00  0.00    +0.001 A 
ATOM     16  C   UNL     1     135.559 125.454 123.255  1.00  0.00    +0.060 A 
ATOM     17  C   UNL     1     135.820 125.718 121.904  1.00  0.00    +0.016 A 
BRANCH  16  18
ATOM     18  C   UNL     1     136.642 125.199 124.244  1.00  0.00    +0.337 C 
ATOM     19  O   UNL     1     137.460 126.041 124.582  1.00  0.00    -0.246 OA
BRANCH  18  20
ATOM     20  O   UNL     1     136.586 123.923 124.699  1.00  0.00    -0.465 OA
ATOM     21  C   UNL     1     136.482 122.944 123.665  1.00  0.00    +0.282 C 
ENDBRANCH  18  20
ENDBRANCH  16  18
ENDBRANCH   1  12
TORSDOF 7
ENDMDL
MODEL 19
REMARK VINA RESULT:    -7.239      3.299      6.308
REMARK INTER + INTRA:         -10.890
REMARK INTER:                 -10.159
REMARK INTRA:                  -0.731
REMARK UNBOUND:                -0.690
REMARK SMILES COC(=O)c1cccc(CCN(C)Cc2ccccc2)c1
REMARK SMILES IDX 10 1 11 2 12 3 13 4 14 5 15 6 16 7 20 8 17 9 19 10 18 11
REMARK SMILES IDX 9 12 8 13 21 14 7 15 5 16 6 17 3 18 4 19 2 20 1 21
REMARK H PARENT
REMARK INDEX MAP 4 1 3 2 2 3 1 4 15 5 16 6 17 7 21 8 18 9 20 10 19 11 5 12
REMARK INDEX MAP 6 13 10 14 7 15 9 16 8 17 11 18 12 19 13 20 14 21
ROOT
ATOM      1  C   UNL     1     132.366 125.083 124.294  1.00  0.00    +0.051 C 
ENDROOT
BRANCH   1   2
ATOM      2  C   UNL     1     133.445 125.652 123.355  1.00  0.00    +0.089 C 
BRANCH   2   3
ATOM      3  N   UNL     1     134.490 124.719 122.893  1.00  0.00    -0.302 NA
ATOM      4  C   UNL     1     134.962 125.046 121.549  1.00  0.00    +0.105 C 
BRANCH   3   5
ATOM      5  C   UNL     1     135.626 124.583 123.820  1.00  0.00    +0.119 C 
BRANCH   5   6
ATOM      6  C   UNL     1     135.446 123.491 124.852  1.00  0.00    -0.034 A 
ATOM      7  C   UNL     1     135.321 123.813 126.212  1.00  0.00    +0.005 A 
ATOM      8  C   UNL     1     135.407 122.141 124.469  1.00  0.00    +0.005 A 
ATOM      9  C   UNL     1     135.166 122.808 127.168  1.00  0.00    +0.000 A 
ATOM     10  C   UNL     1     135.255 121.138 125.426  1.00  0.00    +0.000 A 
ATOM     11  C   UNL     1     135.134 121.471 126.774  1.00  0.00    +0.000 A 
ENDBRANCH   5   6
ENDBRANCH   3   5
ENDBRANCH   2   3
ENDBRANCH   1   2
BRANCH   1  12
ATOM     12  C   UNL     1     131.411 126.159 124.759  1.00  0.00    -0.046 A 
ATOM     13  C   UNL     1     130.578 126.819 123.848  1.00  0.00    +0.004 A 
ATOM     14  C   UNL     1     131.329 126.488 126.121  1.00  0.00    +0.019 A 
ATOM     15  C   UNL     1     129.686 127.798 124.287  1.00  0.00    +0.001 A 
ATOM     16  C   UNL     1     130.436 127.472 126.568  1.00  0.00    +0.060 A 
ATOM     17  C   UNL     1     129.615 128.127 125.642  1.00  0.00    +0.016 A 
BRANCH  16  18
ATOM     18  C   UNL     1     130.406 127.784 128.024  1.00  0.00    +0.337 C 
ATOM     19  O   UNL     1     129.890 127.059 128.860  1.00  0.00    -0.246 OA
BRANCH  18  20
ATOM     20  O   UNL     1     131.021 128.967 128.274  1.00  0.00    -0.465 OA
ATOM     21  C   UNL     1     132.130 128.866 129.166  1.00  0.00    +0.282 C 
ENDBRANCH  18  20
ENDBRANCH  16  18
ENDBRANCH   1  12
TORSDOF 7
ENDMDL
MODEL 20
REMARK VINA RESULT:    -7.090      3.286      5.499
REMARK INTER + INTRA:         -10.681
REMARK INTER:                 -10.111
REMARK INTRA:                  -0.570
REMARK UNBOUND:                -0.690
REMARK SMILES COC(=O)c1cccc(CCN(C)Cc2ccccc2)c1
REMARK SMILES IDX 10 1 11 2 12 3 13 4 14 5 15 6 16 7 20 8 17 9 19 10 18 11
REMARK SMILES IDX 9 12 8 13 21 14 7 15 5 16 6 17 3 18 4 19 2 20 1 21
REMARK H PARENT
REMARK INDEX MAP 4 1 3 2 2 3 1 4 15 5 16 6 17 7 21 8 18 9 20 10 19 11 5 12
REMARK INDEX MAP 6 13 10 14 7 15 9 16 8 17 11 18 12 19 13 20 14 21
ROOT
ATOM      1  C   UNL     1     131.548 125.814 124.298  1.00  0.00    +0.051 C 
ENDROOT
BRANCH   1   2
ATOM      2  C   UNL     1     133.021 125.899 124.740  1.00  0.00    +0.089 C 
BRANCH   2   3
ATOM      3  N   UNL     1     133.816 124.659 124.662  1.00  0.00    -0.302 NA
ATOM      4  C   UNL     1     133.883 123.969 125.949  1.00  0.00    +0.105 C 
BRANCH   3   5
ATOM      5  C   UNL     1     133.385 123.733 123.602  1.00  0.00    +0.119 C 
BRANCH   5   6
ATOM      6  C   UNL     1     134.165 123.875 122.312  1.00  0.00    -0.034 A 
ATOM      7  C   UNL     1     135.263 123.040 122.052  1.00  0.00    +0.005 A 
ATOM      8  C   UNL     1     133.811 124.843 121.361  1.00  0.00    +0.005 A 
ATOM      9  C   UNL     1     135.992 123.175 120.869  1.00  0.00    +0.000 A 
ATOM     10  C   UNL     1     134.542 124.979 120.181  1.00  0.00    +0.000 A 
ATOM     11  C   UNL     1     135.631 124.145 119.935  1.00  0.00    +0.000 A 
ENDBRANCH   5   6
ENDBRANCH   3   5
ENDBRANCH   2   3
ENDBRANCH   1   2
BRANCH   1  12
ATOM     12  C   UNL     1     130.679 126.776 125.074  1.00  0.00    -0.046 A 
ATOM     13  C   UNL     1     130.248 127.976 124.497  1.00  0.00    +0.004 A 
ATOM     14  C   UNL     1     130.269 126.461 126.379  1.00  0.00    +0.019 A 
ATOM     15  C   UNL     1     129.430 128.852 125.213  1.00  0.00    +0.001 A 
ATOM     16  C   UNL     1     129.449 127.337 127.104  1.00  0.00    +0.060 A 
ATOM     17  C   UNL     1     129.032 128.537 126.513  1.00  0.00    +0.016 A 
BRANCH  16  18
ATOM     18  C   UNL     1     129.059 126.950 128.488  1.00  0.00    +0.337 C 
ATOM     19  O   UNL     1     129.775 127.117 129.463  1.00  0.00    -0.246 OA
BRANCH  18  20
ATOM     20  O   UNL     1     127.822 126.395 128.501  1.00  0.00    -0.465 OA
ATOM     21  C   UNL     1     127.717 125.231 129.321  1.00  0.00    +0.282 C 
ENDBRANCH  18  20
ENDBRANCH  16  18
ENDBRANCH   1  12
TORSDOF 7
ENDMDL
