MODEL 1
REMARK VINA RESULT:   -10.547      0.000      0.000
REMARK INTER + INTRA:         -13.936
REMARK INTER:                 -13.013
REMARK INTRA:                  -0.923
REMARK UNBOUND:                -0.923
REMARK SMILES Fc1ccc([C@@H]2CCNC[C@H]2COc2ccc3c(c2)OCO3)cc1
REMARK SMILES IDX 6 1 7 2 8 3 9 4 10 5 11 6 5 8 2 9 3 10 24 11 4 12 23 13 1 14
REMARK SMILES IDX 12 15 13 16 14 17 15 18 19 19 16 20 18 21 17 22 20 23 22 24
REMARK SMILES IDX 21 25
REMARK H PARENT 9 7
REMARK INDEX MAP 8 1 9 2 10 3 11 4 12 5 13 6 34 7 5 8 2 9 3 10 7 11 4 12 6 13
REMARK INDEX MAP 1 14 14 15 15 16 16 17 17 18 24 19 18 20 23 21 19 22 22 23
REMARK INDEX MAP 20 24 21 25
ROOT
ATOM      1  C   UNL     1     136.299 124.908 124.141  1.00  0.00    +0.028 C 
ATOM      2  C   UNL     1     137.313 125.564 125.104  1.00  0.00    +0.024 C 
ATOM      3  C   UNL     1     136.889 126.966 125.529  1.00  0.00    +0.081 C 
ATOM      4  N   UNL     1     136.711 127.863 124.390  1.00  0.00    -0.316 NA
ATOM      5  C   UNL     1     136.112 127.238 123.210  1.00  0.00    +0.088 C 
ATOM      6  C   UNL     1     135.333 125.950 123.516  1.00  0.00    +0.048 C 
ATOM      7  H   UNL     1     136.168 128.678 124.677  1.00  0.00    +0.122 HD
ENDROOT
BRANCH   1   8
ATOM      8  C   UNL     1     135.537 123.763 124.801  1.00  0.00    -0.044 A 
ATOM      9  C   UNL     1     134.131 121.703 126.066  1.00  0.00    +0.123 A 
ATOM     10  C   UNL     1     135.037 121.397 125.059  1.00  0.00    +0.039 A 
ATOM     11  C   UNL     1     133.915 123.017 126.456  1.00  0.00    +0.039 A 
ATOM     12  C   UNL     1     135.741 122.424 124.428  1.00  0.00    +0.007 A 
ATOM     13  C   UNL     1     134.617 124.046 125.826  1.00  0.00    +0.007 A 
ATOM     14  F   UNL     1     133.459 120.714 126.672  1.00  0.00    -0.207 F 
ENDBRANCH   1   8
BRANCH   6  15
ATOM     15  C   UNL     1     134.638 125.416 122.250  1.00  0.00    +0.235 C 
BRANCH  15  16
ATOM     16  O   UNL     1     135.573 125.350 121.172  1.00  0.00    -0.493 OA
BRANCH  16  17
ATOM     17  C   UNL     1     135.272 124.513 120.133  1.00  0.00    +0.123 A 
ATOM     18  C   UNL     1     134.536 125.121 119.095  1.00  0.00    +0.050 A 
ATOM     19  C   UNL     1     135.627 123.165 120.039  1.00  0.00    +0.097 A 
ATOM     20  C   UNL     1     134.151 124.398 117.961  1.00  0.00    +0.054 A 
ATOM     21  C   UNL     1     135.234 122.475 118.908  1.00  0.00    +0.169 A 
ATOM     22  C   UNL     1     134.517 123.073 117.899  1.00  0.00    +0.166 A 
ATOM     23  O   UNL     1     135.493 121.164 118.652  1.00  0.00    -0.453 OA
ATOM     24  O   UNL     1     134.236 122.215 116.882  1.00  0.00    -0.454 OA
ATOM     25  C   UNL     1     134.857 121.007 117.366  1.00  0.00    +0.468 C 
ENDBRANCH  16  17
ENDBRANCH  15  16
ENDBRANCH   6  15
TORSDOF 4
ENDMDL
MODEL 2
REMARK VINA RESULT:    -9.985      2.995      5.173
REMARK INTER + INTRA:         -13.243
REMARK INTER:                 -11.231
REMARK INTRA:                  -2.012
REMARK UNBOUND:                -0.923
REMARK SMILES Fc1ccc([C@@H]2CCNC[C@H]2COc2ccc3c(c2)OCO3)cc1
REMARK SMILES IDX 6 1 7 2 8 3 9 4 10 5 11 6 5 8 2 9 3 10 24 11 4 12 23 13 1 14
REMARK SMILES IDX 12 15 13 16 14 17 15 18 19 19 16 20 18 21 17 22 20 23 22 24
REMARK SMILES IDX 21 25
REMARK H PARENT 9 7
REMARK INDEX MAP 8 1 9 2 10 3 11 4 12 5 13 6 34 7 5 8 2 9 3 10 7 11 4 12 6 13
REMARK INDEX MAP 1 14 14 15 15 16 16 17 17 18 24 19 18 20 23 21 19 22 22 23
REMARK INDEX MAP 20 24 21 25
ROOT
ATOM      1  C   UNL     1     136.276 124.884 124.088  1.00  0.00    +0.028 C 
ATOM      2  C   UNL     1     137.294 125.698 124.917  1.00  0.00    +0.024 C 
ATOM      3  C   UNL     1     136.793 127.103 125.236  1.00  0.00    +0.081 C 
ATOM      4  N   UNL     1     136.485 127.871 124.032  1.00  0.00    -0.316 NA
ATOM      5  C   UNL     1     135.864 127.094 122.957  1.00  0.00    +0.088 C 
ATOM      6  C   UNL     1     135.202 125.793 123.432  1.00  0.00    +0.048 C 
ATOM      7  H   UNL     1     135.901 128.671 124.276  1.00  0.00    +0.122 HD
ENDROOT
BRANCH   1   8
ATOM      8  C   UNL     1     135.640 123.760 124.900  1.00  0.00    -0.044 A 
ATOM      9  C   UNL     1     134.479 121.740 126.445  1.00  0.00    +0.123 A 
ATOM     10  C   UNL     1     135.132 121.410 125.265  1.00  0.00    +0.039 A 
ATOM     11  C   UNL     1     134.396 123.058 126.871  1.00  0.00    +0.039 A 
ATOM     12  C   UNL     1     135.714 122.418 124.493  1.00  0.00    +0.007 A 
ATOM     13  C   UNL     1     134.976 124.068 126.101  1.00  0.00    +0.007 A 
ATOM     14  F   UNL     1     133.923 120.770 127.185  1.00  0.00    -0.207 F 
ENDBRANCH   1   8
BRANCH   6  15
ATOM     15  C   UNL     1     134.475 125.091 122.269  1.00  0.00    +0.235 C 
BRANCH  15  16
ATOM     16  O   UNL     1     133.079 125.388 122.319  1.00  0.00    -0.493 OA
BRANCH  16  17
ATOM     17  C   UNL     1     132.391 124.975 123.427  1.00  0.00    +0.123 A 
ATOM     18  C   UNL     1     132.231 123.577 123.521  1.00  0.00    +0.050 A 
ATOM     19  C   UNL     1     131.864 125.805 124.419  1.00  0.00    +0.097 A 
ATOM     20  C   UNL     1     131.551 122.997 124.596  1.00  0.00    +0.054 A 
ATOM     21  C   UNL     1     131.197 125.206 125.470  1.00  0.00    +0.169 A 
ATOM     22  C   UNL     1     131.044 123.842 125.557  1.00  0.00    +0.166 A 
ATOM     23  O   UNL     1     130.624 125.858 126.518  1.00  0.00    -0.453 OA
ATOM     24  O   UNL     1     130.359 123.466 126.669  1.00  0.00    -0.454 OA
ATOM     25  C   UNL     1     130.095 124.748 127.274  1.00  0.00    +0.468 C 
ENDBRANCH  16  17
ENDBRANCH  15  16
ENDBRANCH   6  15
TORSDOF 4
ENDMDL
MODEL 3
REMARK VINA RESULT:    -9.725      2.702      3.968
REMARK INTER + INTRA:         -12.922
REMARK INTER:                 -11.413
REMARK INTRA:                  -1.509
REMARK UNBOUND:                -0.923
REMARK SMILES Fc1ccc([C@@H]2CCNC[C@H]2COc2ccc3c(c2)OCO3)cc1
REMARK SMILES IDX 6 1 7 2 8 3 9 4 10 5 11 6 5 8 2 9 3 10 24 11 4 12 23 13 1 14
REMARK SMILES IDX 12 15 13 16 14 17 15 18 19 19 16 20 18 21 17 22 20 23 22 24
REMARK SMILES IDX 21 25
REMARK H PARENT 9 7
REMARK INDEX MAP 8 1 9 2 10 3 11 4 12 5 13 6 34 7 5 8 2 9 3 10 7 11 4 12 6 13
REMARK INDEX MAP 1 14 14 15 15 16 16 17 17 18 24 19 18 20 23 21 19 22 22 23
REMARK INDEX MAP 20 24 21 25
ROOT
ATOM      1  C   UNL     1     134.337 122.390 125.012  1.00  0.00    +0.028 C 
ATOM      2  C   UNL     1     133.905 121.843 126.390  1.00  0.00    +0.024 C 
ATOM      3  C   UNL     1     134.952 122.094 127.470  1.00  0.00    +0.081 C 
ATOM      4  N   UNL     1     136.245 121.500 127.141  1.00  0.00    -0.316 NA
ATOM      5  C   UNL     1     136.611 121.585 125.726  1.00  0.00    +0.088 C 
ATOM      6  C   UNL     1     135.861 122.679 124.953  1.00  0.00    +0.048 C 
ATOM      7  H   UNL     1     136.972 121.917 127.723  1.00  0.00    +0.122 HD
ENDROOT
BRANCH   1   8
ATOM      8  C   UNL     1     133.519 123.608 124.595  1.00  0.00    -0.044 A 
ATOM      9  C   UNL     1     132.013 125.814 123.766  1.00  0.00    +0.123 A 
ATOM     10  C   UNL     1     132.869 125.937 124.853  1.00  0.00    +0.039 A 
ATOM     11  C   UNL     1     131.896 124.612 123.083  1.00  0.00    +0.039 A 
ATOM     12  C   UNL     1     133.622 124.837 125.267  1.00  0.00    +0.007 A 
ATOM     13  C   UNL     1     132.648 123.510 123.495  1.00  0.00    +0.007 A 
ATOM     14  F   UNL     1     131.293 126.873 123.370  1.00  0.00    -0.207 F 
ENDBRANCH   1   8
BRANCH   6  15
ATOM     15  C   UNL     1     136.381 122.784 123.507  1.00  0.00    +0.235 C 
BRANCH  15  16
ATOM     16  O   UNL     1     136.213 124.117 123.025  1.00  0.00    -0.493 OA
BRANCH  16  17
ATOM     17  C   UNL     1     135.718 124.267 121.758  1.00  0.00    +0.123 A 
ATOM     18  C   UNL     1     135.093 125.508 121.523  1.00  0.00    +0.050 A 
ATOM     19  C   UNL     1     135.789 123.318 120.735  1.00  0.00    +0.097 A 
ATOM     20  C   UNL     1     134.537 125.815 120.277  1.00  0.00    +0.054 A 
ATOM     21  C   UNL     1     135.233 123.646 119.514  1.00  0.00    +0.169 A 
ATOM     22  C   UNL     1     134.625 124.859 119.290  1.00  0.00    +0.166 A 
ATOM     23  O   UNL     1     135.212 122.847 118.414  1.00  0.00    -0.453 OA
ATOM     24  O   UNL     1     134.147 124.975 118.023  1.00  0.00    -0.454 OA
ATOM     25  C   UNL     1     134.523 123.696 117.472  1.00  0.00    +0.468 C 
ENDBRANCH  16  17
ENDBRANCH  15  16
ENDBRANCH   6  15
TORSDOF 4
ENDMDL
MODEL 4
REMARK VINA RESULT:    -9.637      2.385      3.538
REMARK INTER + INTRA:         -12.814
REMARK INTER:                 -11.777
REMARK INTRA:                  -1.037
REMARK UNBOUND:                -0.923
REMARK SMILES Fc1ccc([C@@H]2CCNC[C@H]2COc2ccc3c(c2)OCO3)cc1
REMARK SMILES IDX 6 1 7 2 8 3 9 4 10 5 11 6 5 8 2 9 3 10 24 11 4 12 23 13 1 14
REMARK SMILES IDX 12 15 13 16 14 17 15 18 19 19 16 20 18 21 17 22 20 23 22 24
REMARK SMILES IDX 21 25
REMARK H PARENT 9 7
REMARK INDEX MAP 8 1 9 2 10 3 11 4 12 5 13 6 34 7 5 8 2 9 3 10 7 11 4 12 6 13
REMARK INDEX MAP 1 14 14 15 15 16 16 17 17 18 24 19 18 20 23 21 19 22 22 23
REMARK INDEX MAP 20 24 21 25
ROOT
ATOM      1  C   UNL     1     133.282 124.041 126.296  1.00  0.00    +0.028 C 
ATOM      2  C   UNL     1     131.876 123.462 126.565  1.00  0.00    +0.024 C 
ATOM      3  C   UNL     1     131.012 123.424 125.308  1.00  0.00    +0.081 C 
ATOM      4  N   UNL     1     130.842 124.745 124.709  1.00  0.00    -0.316 NA
ATOM      5  C   UNL     1     132.034 125.593 124.758  1.00  0.00    +0.088 C 
ATOM      6  C   UNL     1     133.344 124.816 124.952  1.00  0.00    +0.048 C 
ATOM      7  H   UNL     1     130.514 124.645 123.748  1.00  0.00    +0.122 HD
ENDROOT
BRANCH   1   8
ATOM      8  C   UNL     1     134.369 122.974 126.379  1.00  0.00    -0.044 A 
ATOM      9  C   UNL     1     136.391 121.053 126.582  1.00  0.00    +0.123 A 
ATOM     10  C   UNL     1     135.703 121.200 125.384  1.00  0.00    +0.039 A 
ATOM     11  C   UNL     1     136.092 121.848 127.679  1.00  0.00    +0.039 A 
ATOM     12  C   UNL     1     134.694 122.160 125.282  1.00  0.00    +0.007 A 
ATOM     13  C   UNL     1     135.083 122.808 127.579  1.00  0.00    +0.007 A 
ATOM     14  F   UNL     1     137.360 120.132 126.677  1.00  0.00    -0.207 F 
ENDBRANCH   1   8
BRANCH   6  15
ATOM     15  C   UNL     1     134.559 125.761 124.878  1.00  0.00    +0.235 C 
BRANCH  15  16
ATOM     16  O   UNL     1     135.573 125.185 124.055  1.00  0.00    -0.493 OA
BRANCH  16  17
ATOM     17  C   UNL     1     135.315 125.096 122.714  1.00  0.00    +0.123 A 
ATOM     18  C   UNL     1     134.693 126.237 122.168  1.00  0.00    +0.050 A 
ATOM     19  C   UNL     1     135.611 124.004 121.895  1.00  0.00    +0.097 A 
ATOM     20  C   UNL     1     134.364 126.302 120.810  1.00  0.00    +0.054 A 
ATOM     21  C   UNL     1     135.276 124.094 120.557  1.00  0.00    +0.169 A 
ATOM     22  C   UNL     1     134.670 125.210 120.029  1.00  0.00    +0.166 A 
ATOM     23  O   UNL     1     135.490 123.130 119.622  1.00  0.00    -0.453 OA
ATOM     24  O   UNL     1     134.429 125.089 118.698  1.00  0.00    -0.454 OA
ATOM     25  C   UNL     1     134.951 123.769 118.445  1.00  0.00    +0.468 C 
ENDBRANCH  16  17
ENDBRANCH  15  16
ENDBRANCH   6  15
TORSDOF 4
ENDMDL
MODEL 5
REMARK VINA RESULT:    -9.571      3.750      6.515
REMARK INTER + INTRA:         -12.733
REMARK INTER:                 -11.354
REMARK INTRA:                  -1.379
REMARK UNBOUND:                -0.923
REMARK SMILES Fc1ccc([C@@H]2CCNC[C@H]2COc2ccc3c(c2)OCO3)cc1
REMARK SMILES IDX 6 1 7 2 8 3 9 4 10 5 11 6 5 8 2 9 3 10 24 11 4 12 23 13 1 14
REMARK SMILES IDX 12 15 13 16 14 17 15 18 19 19 16 20 18 21 17 22 20 23 22 24
REMARK SMILES IDX 21 25
REMARK H PARENT 9 7
REMARK INDEX MAP 8 1 9 2 10 3 11 4 12 5 13 6 34 7 5 8 2 9 3 10 7 11 4 12 6 13
REMARK INDEX MAP 1 14 14 15 15 16 16 17 17 18 24 19 18 20 23 21 19 22 22 23
REMARK INDEX MAP 20 24 21 25
ROOT
ATOM      1  C   UNL     1     134.862 123.163 122.132  1.00  0.00    +0.028 C 
ATOM      2  C   UNL     1     136.015 123.045 121.112  1.00  0.00    +0.024 C 
ATOM      3  C   UNL     1     136.516 124.406 120.640  1.00  0.00    +0.081 C 
ATOM      4  N   UNL     1     135.459 125.206 120.026  1.00  0.00    -0.316 NA
ATOM      5  C   UNL     1     134.151 125.086 120.673  1.00  0.00    +0.088 C 
ATOM      6  C   UNL     1     134.217 124.575 122.120  1.00  0.00    +0.048 C 
ATOM      7  H   UNL     1     135.749 126.183 119.986  1.00  0.00    +0.122 HD
ENDROOT
BRANCH   1   8
ATOM      8  C   UNL     1     135.293 122.755 123.538  1.00  0.00    -0.044 A 
ATOM      9  C   UNL     1     136.030 121.965 126.117  1.00  0.00    +0.123 A 
ATOM     10  C   UNL     1     136.435 123.205 125.638  1.00  0.00    +0.039 A 
ATOM     11  C   UNL     1     135.263 121.114 125.335  1.00  0.00    +0.039 A 
ATOM     12  C   UNL     1     136.065 123.601 124.350  1.00  0.00    +0.007 A 
ATOM     13  C   UNL     1     134.894 121.507 124.047  1.00  0.00    +0.007 A 
ATOM     14  F   UNL     1     136.384 121.589 127.353  1.00  0.00    -0.207 F 
ENDBRANCH   1   8
BRANCH   6  15
ATOM     15  C   UNL     1     132.820 124.585 122.769  1.00  0.00    +0.235 C 
BRANCH  15  16
ATOM     16  O   UNL     1     132.882 125.218 124.047  1.00  0.00    -0.493 OA
BRANCH  16  17
ATOM     17  C   UNL     1     131.989 124.801 124.996  1.00  0.00    +0.123 A 
ATOM     18  C   UNL     1     132.302 123.556 125.578  1.00  0.00    +0.050 A 
ATOM     19  C   UNL     1     130.846 125.493 125.403  1.00  0.00    +0.097 A 
ATOM     20  C   UNL     1     131.487 122.993 126.565  1.00  0.00    +0.054 A 
ATOM     21  C   UNL     1     130.058 124.915 126.379  1.00  0.00    +0.169 A 
ATOM     22  C   UNL     1     130.369 123.701 126.945  1.00  0.00    +0.166 A 
ATOM     23  O   UNL     1     128.916 125.447 126.892  1.00  0.00    -0.453 OA
ATOM     24  O   UNL     1     129.464 123.317 127.883  1.00  0.00    -0.454 OA
ATOM     25  C   UNL     1     128.545 124.428 127.845  1.00  0.00    +0.468 C 
ENDBRANCH  16  17
ENDBRANCH  15  16
ENDBRANCH   6  15
TORSDOF 4
ENDMDL
MODEL 6
REMARK VINA RESULT:    -9.545      5.331      6.616
REMARK INTER + INTRA:         -12.700
REMARK INTER:                 -11.977
REMARK INTRA:                  -0.723
REMARK UNBOUND:                -0.923
REMARK SMILES Fc1ccc([C@@H]2CCNC[C@H]2COc2ccc3c(c2)OCO3)cc1
REMARK SMILES IDX 6 1 7 2 8 3 9 4 10 5 11 6 5 8 2 9 3 10 24 11 4 12 23 13 1 14
REMARK SMILES IDX 12 15 13 16 14 17 15 18 19 19 16 20 18 21 17 22 20 23 22 24
REMARK SMILES IDX 21 25
REMARK H PARENT 9 7
REMARK INDEX MAP 8 1 9 2 10 3 11 4 12 5 13 6 34 7 5 8 2 9 3 10 7 11 4 12 6 13
REMARK INDEX MAP 1 14 14 15 15 16 16 17 17 18 24 19 18 20 23 21 19 22 22 23
REMARK INDEX MAP 20 24 21 25
ROOT
ATOM      1  C   UNL     1     129.696 126.829 125.124  1.00  0.00    +0.028 C 
ATOM      2  C   UNL     1     129.231 127.226 126.543  1.00  0.00    +0.024 C 
ATOM      3  C   UNL     1     130.344 127.873 127.361  1.00  0.00    +0.081 C 
ATOM      4  N   UNL     1     131.509 127.003 127.501  1.00  0.00    -0.316 NA
ATOM      5  C   UNL     1     131.832 126.220 126.307  1.00  0.00    +0.088 C 
ATOM      6  C   UNL     1     131.243 126.793 125.009  1.00  0.00    +0.048 C 
ATOM      7  H   UNL     1     132.315 127.555 127.795  1.00  0.00    +0.122 HD
ENDROOT
BRANCH   1   8
ATOM      8  C   UNL     1     129.074 127.712 124.047  1.00  0.00    -0.044 A 
ATOM      9  C   UNL     1     127.958 129.387 122.106  1.00  0.00    +0.123 A 
ATOM     10  C   UNL     1     127.431 128.117 122.300  1.00  0.00    +0.039 A 
ATOM     11  C   UNL     1     129.030 129.839 122.863  1.00  0.00    +0.039 A 
ATOM     12  C   UNL     1     127.987 127.281 123.270  1.00  0.00    +0.007 A 
ATOM     13  C   UNL     1     129.587 129.004 123.833  1.00  0.00    +0.007 A 
ATOM     14  F   UNL     1     127.421 130.188 121.175  1.00  0.00    -0.207 F 
ENDBRANCH   1   8
BRANCH   6  15
ATOM     15  C   UNL     1     131.720 125.985 123.788  1.00  0.00    +0.235 C 
BRANCH  15  16
ATOM     16  O   UNL     1     133.147 125.962 123.746  1.00  0.00    -0.493 OA
BRANCH  16  17
ATOM     17  C   UNL     1     133.731 125.333 122.681  1.00  0.00    +0.123 A 
ATOM     18  C   UNL     1     134.482 124.190 123.024  1.00  0.00    +0.050 A 
ATOM     19  C   UNL     1     133.638 125.730 121.345  1.00  0.00    +0.097 A 
ATOM     20  C   UNL     1     135.141 123.437 122.047  1.00  0.00    +0.054 A 
ATOM     21  C   UNL     1     134.297 124.968 120.400  1.00  0.00    +0.169 A 
ATOM     22  C   UNL     1     135.028 123.854 120.740  1.00  0.00    +0.166 A 
ATOM     23  O   UNL     1     134.313 125.208 119.061  1.00  0.00    -0.453 OA
ATOM     24  O   UNL     1     135.593 123.254 119.660  1.00  0.00    -0.454 OA
ATOM     25  C   UNL     1     135.137 124.116 118.598  1.00  0.00    +0.468 C 
ENDBRANCH  16  17
ENDBRANCH  15  16
ENDBRANCH   6  15
TORSDOF 4
ENDMDL
MODEL 7
REMARK VINA RESULT:    -9.393      1.479      2.117
REMARK INTER + INTRA:         -12.513
REMARK INTER:                 -11.721
REMARK INTRA:                  -0.792
REMARK UNBOUND:                -0.923
REMARK SMILES Fc1ccc([C@@H]2CCNC[C@H]2COc2ccc3c(c2)OCO3)cc1
REMARK SMILES IDX 6 1 7 2 8 3 9 4 10 5 11 6 5 8 2 9 3 10 24 11 4 12 23 13 1 14
REMARK SMILES IDX 12 15 13 16 14 17 15 18 19 19 16 20 18 21 17 22 20 23 22 24
REMARK SMILES IDX 21 25
REMARK H PARENT 9 7
REMARK INDEX MAP 8 1 9 2 10 3 11 4 12 5 13 6 34 7 5 8 2 9 3 10 7 11 4 12 6 13
REMARK INDEX MAP 1 14 14 15 15 16 16 17 17 18 24 19 18 20 23 21 19 22 22 23
REMARK INDEX MAP 20 24 21 25
ROOT
ATOM      1  C   UNL     1     135.217 124.427 124.408  1.00  0.00    +0.028 C 
ATOM      2  C   UNL     1     136.463 124.315 125.312  1.00  0.00    +0.024 C 
ATOM      3  C   UNL     1     137.026 125.680 125.699  1.00  0.00    +0.081 C 
ATOM      4  N   UNL     1     137.391 126.482 124.535  1.00  0.00    -0.316 NA
ATOM      5  C   UNL     1     136.476 126.357 123.399  1.00  0.00    +0.088 C 
ATOM      6  C   UNL     1     135.081 125.838 123.777  1.00  0.00    +0.048 C 
ATOM      7  H   UNL     1     137.488 127.460 124.809  1.00  0.00    +0.122 HD
ENDROOT
BRANCH   1   8
ATOM      8  C   UNL     1     133.941 124.012 125.134  1.00  0.00    -0.044 A 
ATOM      9  C   UNL     1     131.604 123.311 126.501  1.00  0.00    +0.123 A 
ATOM     10  C   UNL     1     132.390 122.317 125.931  1.00  0.00    +0.039 A 
ATOM     11  C   UNL     1     131.963 124.648 126.403  1.00  0.00    +0.039 A 
ATOM     12  C   UNL     1     133.558 122.666 125.250  1.00  0.00    +0.007 A 
ATOM     13  C   UNL     1     133.130 124.999 125.722  1.00  0.00    +0.007 A 
ATOM     14  F   UNL     1     130.485 122.972 127.156  1.00  0.00    -0.207 F 
ENDBRANCH   1   8
BRANCH   6  15
ATOM     15  C   UNL     1     134.144 125.844 122.554  1.00  0.00    +0.235 C 
BRANCH  15  16
ATOM     16  O   UNL     1     134.885 126.159 121.375  1.00  0.00    -0.493 OA
BRANCH  16  17
ATOM     17  C   UNL     1     134.887 125.230 120.370  1.00  0.00    +0.123 A 
ATOM     18  C   UNL     1     135.607 124.056 120.670  1.00  0.00    +0.050 A 
ATOM     19  C   UNL     1     134.256 125.364 119.132  1.00  0.00    +0.097 A 
ATOM     20  C   UNL     1     135.703 123.010 119.747  1.00  0.00    +0.054 A 
ATOM     21  C   UNL     1     134.367 124.317 118.237  1.00  0.00    +0.169 A 
ATOM     22  C   UNL     1     135.069 123.173 118.535  1.00  0.00    +0.166 A 
ATOM     23  O   UNL     1     133.818 124.277 116.993  1.00  0.00    -0.453 OA
ATOM     24  O   UNL     1     135.050 122.272 117.518  1.00  0.00    -0.454 OA
ATOM     25  C   UNL     1     134.256 122.977 116.544  1.00  0.00    +0.468 C 
ENDBRANCH  16  17
ENDBRANCH  15  16
ENDBRANCH   6  15
TORSDOF 4
ENDMDL
MODEL 8
REMARK VINA RESULT:    -9.371      1.723      2.073
REMARK INTER + INTRA:         -12.485
REMARK INTER:                 -11.893
REMARK INTRA:                  -0.592
REMARK UNBOUND:                -0.923
REMARK SMILES Fc1ccc([C@@H]2CCNC[C@H]2COc2ccc3c(c2)OCO3)cc1
REMARK SMILES IDX 6 1 7 2 8 3 9 4 10 5 11 6 5 8 2 9 3 10 24 11 4 12 23 13 1 14
REMARK SMILES IDX 12 15 13 16 14 17 15 18 19 19 16 20 18 21 17 22 20 23 22 24
REMARK SMILES IDX 21 25
REMARK H PARENT 9 7
REMARK INDEX MAP 8 1 9 2 10 3 11 4 12 5 13 6 34 7 5 8 2 9 3 10 7 11 4 12 6 13
REMARK INDEX MAP 1 14 14 15 15 16 16 17 17 18 24 19 18 20 23 21 19 22 22 23
REMARK INDEX MAP 20 24 21 25
ROOT
ATOM      1  C   UNL     1     134.435 125.140 124.561  1.00  0.00    +0.028 C 
ATOM      2  C   UNL     1     133.118 125.566 125.247  1.00  0.00    +0.024 C 
ATOM      3  C   UNL     1     131.929 125.539 124.291  1.00  0.00    +0.081 C 
ATOM      4  N   UNL     1     132.127 126.403 123.131  1.00  0.00    -0.316 NA
ATOM      5  C   UNL     1     133.494 126.414 122.606  1.00  0.00    +0.088 C 
ATOM      6  C   UNL     1     134.327 125.190 123.014  1.00  0.00    +0.048 C 
ATOM      7  H   UNL     1     131.465 126.148 122.397  1.00  0.00    +0.122 HD
ENDROOT
BRANCH   1   8
ATOM      8  C   UNL     1     134.920 123.777 125.046  1.00  0.00    -0.044 A 
ATOM      9  C   UNL     1     135.840 121.310 125.987  1.00  0.00    +0.123 A 
ATOM     10  C   UNL     1     135.551 121.464 124.638  1.00  0.00    +0.039 A 
ATOM     11  C   UNL     1     135.681 122.365 126.876  1.00  0.00    +0.039 A 
ATOM     12  C   UNL     1     135.093 122.696 124.166  1.00  0.00    +0.007 A 
ATOM     13  C   UNL     1     135.223 123.597 126.407  1.00  0.00    +0.007 A 
ATOM     14  F   UNL     1     136.281 120.127 126.436  1.00  0.00    -0.207 F 
ENDBRANCH   1   8
BRANCH   6  15
ATOM     15  C   UNL     1     135.708 125.216 122.332  1.00  0.00    +0.235 C 
BRANCH  15  16
ATOM     16  O   UNL     1     135.578 125.677 120.987  1.00  0.00    -0.493 OA
BRANCH  16  17
ATOM     17  C   UNL     1     135.264 124.745 120.035  1.00  0.00    +0.123 A 
ATOM     18  C   UNL     1     134.463 125.239 118.985  1.00  0.00    +0.050 A 
ATOM     19  C   UNL     1     135.665 123.407 120.037  1.00  0.00    +0.097 A 
ATOM     20  C   UNL     1     134.058 124.411 117.934  1.00  0.00    +0.054 A 
ATOM     21  C   UNL     1     135.251 122.611 118.986  1.00  0.00    +0.169 A 
ATOM     22  C   UNL     1     134.470 123.098 117.964  1.00  0.00    +0.166 A 
ATOM     23  O   UNL     1     135.547 121.293 118.828  1.00  0.00    -0.453 OA
ATOM     24  O   UNL     1     134.178 122.149 117.036  1.00  0.00    -0.454 OA
ATOM     25  C   UNL     1     134.864 121.007 117.589  1.00  0.00    +0.468 C 
ENDBRANCH  16  17
ENDBRANCH  15  16
ENDBRANCH   6  15
TORSDOF 4
ENDMDL
MODEL 9
REMARK VINA RESULT:    -9.323      4.163      6.584
REMARK INTER + INTRA:         -12.426
REMARK INTER:                 -11.461
REMARK INTRA:                  -0.964
REMARK UNBOUND:                -0.923
REMARK SMILES Fc1ccc([C@@H]2CCNC[C@H]2COc2ccc3c(c2)OCO3)cc1
REMARK SMILES IDX 6 1 7 2 8 3 9 4 10 5 11 6 5 8 2 9 3 10 24 11 4 12 23 13 1 14
REMARK SMILES IDX 12 15 13 16 14 17 15 18 19 19 16 20 18 21 17 22 20 23 22 24
REMARK SMILES IDX 21 25
REMARK H PARENT 9 7
REMARK INDEX MAP 8 1 9 2 10 3 11 4 12 5 13 6 34 7 5 8 2 9 3 10 7 11 4 12 6 13
REMARK INDEX MAP 1 14 14 15 15 16 16 17 17 18 24 19 18 20 23 21 19 22 22 23
REMARK INDEX MAP 20 24 21 25
ROOT
ATOM      1  C   UNL     1     134.829 124.285 123.050  1.00  0.00    +0.028 C 
ATOM      2  C   UNL     1     136.136 124.950 122.565  1.00  0.00    +0.024 C 
ATOM      3  C   UNL     1     136.096 126.470 122.688  1.00  0.00    +0.081 C 
ATOM      4  N   UNL     1     134.991 127.061 121.937  1.00  0.00    -0.316 NA
ATOM      5  C   UNL     1     133.749 126.286 121.972  1.00  0.00    +0.088 C 
ATOM      6  C   UNL     1     133.661 125.303 123.148  1.00  0.00    +0.048 C 
ATOM      7  H   UNL     1     134.826 128.014 122.263  1.00  0.00    +0.122 HD
ENDROOT
BRANCH   1   8
ATOM      8  C   UNL     1     135.021 123.525 124.358  1.00  0.00    -0.044 A 
ATOM      9  C   UNL     1     135.365 122.072 126.722  1.00  0.00    +0.123 A 
ATOM     10  C   UNL     1     134.974 123.403 126.787  1.00  0.00    +0.039 A 
ATOM     11  C   UNL     1     135.585 121.451 125.501  1.00  0.00    +0.039 A 
ATOM     12  C   UNL     1     134.801 124.129 125.606  1.00  0.00    +0.007 A 
ATOM     13  C   UNL     1     135.413 122.175 124.320  1.00  0.00    +0.007 A 
ATOM     14  F   UNL     1     135.528 121.377 127.857  1.00  0.00    -0.207 F 
ENDBRANCH   1   8
BRANCH   6  15
ATOM     15  C   UNL     1     132.285 124.611 123.182  1.00  0.00    +0.235 C 
BRANCH  15  16
ATOM     16  O   UNL     1     131.248 125.586 123.062  1.00  0.00    -0.493 OA
BRANCH  16  17
ATOM     17  C   UNL     1     130.817 126.187 124.213  1.00  0.00    +0.123 A 
ATOM     18  C   UNL     1     130.383 127.517 124.044  1.00  0.00    +0.050 A 
ATOM     19  C   UNL     1     130.784 125.598 125.479  1.00  0.00    +0.097 A 
ATOM     20  C   UNL     1     129.912 128.268 125.125  1.00  0.00    +0.054 A 
ATOM     21  C   UNL     1     130.314 126.361 126.531  1.00  0.00    +0.169 A 
ATOM     22  C   UNL     1     129.890 127.658 126.360  1.00  0.00    +0.166 A 
ATOM     23  O   UNL     1     130.212 125.950 127.823  1.00  0.00    -0.453 OA
ATOM     24  O   UNL     1     129.468 128.224 127.521  1.00  0.00    -0.454 OA
ATOM     25  C   UNL     1     129.674 127.137 128.445  1.00  0.00    +0.468 C 
ENDBRANCH  16  17
ENDBRANCH  15  16
ENDBRANCH   6  15
TORSDOF 4
ENDMDL
MODEL 10
REMARK VINA RESULT:    -9.320      2.418      3.280
REMARK INTER + INTRA:         -12.423
REMARK INTER:                 -11.693
REMARK INTRA:                  -0.730
REMARK UNBOUND:                -0.923
REMARK SMILES Fc1ccc([C@@H]2CCNC[C@H]2COc2ccc3c(c2)OCO3)cc1
REMARK SMILES IDX 6 1 7 2 8 3 9 4 10 5 11 6 5 8 2 9 3 10 24 11 4 12 23 13 1 14
REMARK SMILES IDX 12 15 13 16 14 17 15 18 19 19 16 20 18 21 17 22 20 23 22 24
REMARK SMILES IDX 21 25
REMARK H PARENT 9 7
REMARK INDEX MAP 8 1 9 2 10 3 11 4 12 5 13 6 34 7 5 8 2 9 3 10 7 11 4 12 6 13
REMARK INDEX MAP 1 14 14 15 15 16 16 17 17 18 24 19 18 20 23 21 19 22 22 23
REMARK INDEX MAP 20 24 21 25
ROOT
ATOM      1  C   UNL     1     133.899 122.549 124.882  1.00  0.00    +0.028 C 
ATOM      2  C   UNL     1     134.596 121.625 125.904  1.00  0.00    +0.024 C 
ATOM      3  C   UNL     1     136.016 122.082 126.228  1.00  0.00    +0.081 C 
ATOM      4  N   UNL     1     136.863 122.152 125.040  1.00  0.00    -0.316 NA
ATOM      5  C   UNL     1     136.187 122.643 123.838  1.00  0.00    +0.088 C 
ATOM      6  C   UNL     1     134.913 123.450 124.126  1.00  0.00    +0.048 C 
ATOM      7  H   UNL     1     137.689 122.716 125.241  1.00  0.00    +0.122 HD
ENDROOT
BRANCH   1   8
ATOM      8  C   UNL     1     132.783 123.372 125.518  1.00  0.00    -0.044 A 
ATOM      9  C   UNL     1     130.784 124.912 126.723  1.00  0.00    +0.123 A 
ATOM     10  C   UNL     1     130.456 123.689 126.151  1.00  0.00    +0.039 A 
ATOM     11  C   UNL     1     132.091 125.380 126.707  1.00  0.00    +0.039 A 
ATOM     12  C   UNL     1     131.454 122.919 125.551  1.00  0.00    +0.007 A 
ATOM     13  C   UNL     1     133.089 124.612 126.106  1.00  0.00    +0.007 A 
ATOM     14  F   UNL     1     129.825 125.648 127.300  1.00  0.00    -0.207 F 
ENDBRANCH   1   8
BRANCH   6  15
ATOM     15  C   UNL     1     134.324 124.029 122.826  1.00  0.00    +0.235 C 
BRANCH  15  16
ATOM     16  O   UNL     1     135.375 124.323 121.905  1.00  0.00    -0.493 OA
BRANCH  16  17
ATOM     17  C   UNL     1     135.169 123.990 120.594  1.00  0.00    +0.123 A 
ATOM     18  C   UNL     1     134.604 125.022 119.817  1.00  0.00    +0.050 A 
ATOM     19  C   UNL     1     135.466 122.758 120.007  1.00  0.00    +0.097 A 
ATOM     20  C   UNL     1     134.333 124.838 118.457  1.00  0.00    +0.054 A 
ATOM     21  C   UNL     1     135.189 122.603 118.662  1.00  0.00    +0.169 A 
ATOM     22  C   UNL     1     134.639 123.613 117.909  1.00  0.00    +0.166 A 
ATOM     23  O   UNL     1     135.413 121.477 117.933  1.00  0.00    -0.453 OA
ATOM     24  O   UNL     1     134.450 123.250 116.613  1.00  0.00    -0.454 OA
ATOM     25  C   UNL     1     134.942 121.895 116.634  1.00  0.00    +0.468 C 
ENDBRANCH  16  17
ENDBRANCH  15  16
ENDBRANCH   6  15
TORSDOF 4
ENDMDL
MODEL 11
REMARK VINA RESULT:    -9.285      3.206      5.479
REMARK INTER + INTRA:         -12.379
REMARK INTER:                 -10.779
REMARK INTRA:                  -1.600
REMARK UNBOUND:                -0.923
REMARK SMILES Fc1ccc([C@@H]2CCNC[C@H]2COc2ccc3c(c2)OCO3)cc1
REMARK SMILES IDX 6 1 7 2 8 3 9 4 10 5 11 6 5 8 2 9 3 10 24 11 4 12 23 13 1 14
REMARK SMILES IDX 12 15 13 16 14 17 15 18 19 19 16 20 18 21 17 22 20 23 22 24
REMARK SMILES IDX 21 25
REMARK H PARENT 9 7
REMARK INDEX MAP 8 1 9 2 10 3 11 4 12 5 13 6 34 7 5 8 2 9 3 10 7 11 4 12 6 13
REMARK INDEX MAP 1 14 14 15 15 16 16 17 17 18 24 19 18 20 23 21 19 22 22 23
REMARK INDEX MAP 20 24 21 25
ROOT
ATOM      1  C   UNL     1     134.227 126.035 122.323  1.00  0.00    +0.028 C 
ATOM      2  C   UNL     1     133.751 125.810 120.871  1.00  0.00    +0.024 C 
ATOM      3  C   UNL     1     134.616 124.799 120.126  1.00  0.00    +0.081 C 
ATOM      4  N   UNL     1     136.021 125.196 120.077  1.00  0.00    -0.316 NA
ATOM      5  C   UNL     1     136.517 125.830 121.300  1.00  0.00    +0.088 C 
ATOM      6  C   UNL     1     135.674 125.521 122.547  1.00  0.00    +0.048 C 
ATOM      7  H   UNL     1     136.597 124.390 119.835  1.00  0.00    +0.122 HD
ENDROOT
BRANCH   1   8
ATOM      8  C   UNL     1     133.258 125.445 123.344  1.00  0.00    -0.044 A 
ATOM      9  C   UNL     1     131.509 124.406 125.262  1.00  0.00    +0.123 A 
ATOM     10  C   UNL     1     131.839 123.643 124.150  1.00  0.00    +0.039 A 
ATOM     11  C   UNL     1     132.038 125.678 125.437  1.00  0.00    +0.039 A 
ATOM     12  C   UNL     1     132.714 124.160 123.192  1.00  0.00    +0.007 A 
ATOM     13  C   UNL     1     132.911 126.197 124.480  1.00  0.00    +0.007 A 
ATOM     14  F   UNL     1     130.671 123.906 126.180  1.00  0.00    -0.207 F 
ENDBRANCH   1   8
BRANCH   6  15
ATOM     15  C   UNL     1     136.320 126.125 123.808  1.00  0.00    +0.235 C 
BRANCH  15  16
ATOM     16  O   UNL     1     136.923 125.092 124.588  1.00  0.00    -0.493 OA
BRANCH  16  17
ATOM     17  C   UNL     1     136.146 124.008 124.898  1.00  0.00    +0.123 A 
ATOM     18  C   UNL     1     136.223 122.955 123.964  1.00  0.00    +0.050 A 
ATOM     19  C   UNL     1     135.325 123.886 126.021  1.00  0.00    +0.097 A 
ATOM     20  C   UNL     1     135.489 121.778 124.139  1.00  0.00    +0.054 A 
ATOM     21  C   UNL     1     134.611 122.712 126.170  1.00  0.00    +0.169 A 
ATOM     22  C   UNL     1     134.690 121.688 125.256  1.00  0.00    +0.166 A 
ATOM     23  O   UNL     1     133.768 122.424 127.198  1.00  0.00    -0.453 OA
ATOM     24  O   UNL     1     133.909 120.628 125.595  1.00  0.00    -0.454 OA
ATOM     25  C   UNL     1     133.327 121.101 126.826  1.00  0.00    +0.468 C 
ENDBRANCH  16  17
ENDBRANCH  15  16
ENDBRANCH   6  15
TORSDOF 4
ENDMDL
MODEL 12
REMARK VINA RESULT:    -9.261      3.913      6.426
REMARK INTER + INTRA:         -12.349
REMARK INTER:                 -11.271
REMARK INTRA:                  -1.078
REMARK UNBOUND:                -0.923
REMARK SMILES Fc1ccc([C@@H]2CCNC[C@H]2COc2ccc3c(c2)OCO3)cc1
REMARK SMILES IDX 6 1 7 2 8 3 9 4 10 5 11 6 5 8 2 9 3 10 24 11 4 12 23 13 1 14
REMARK SMILES IDX 12 15 13 16 14 17 15 18 19 19 16 20 18 21 17 22 20 23 22 24
REMARK SMILES IDX 21 25
REMARK H PARENT 9 7
REMARK INDEX MAP 8 1 9 2 10 3 11 4 12 5 13 6 34 7 5 8 2 9 3 10 7 11 4 12 6 13
REMARK INDEX MAP 1 14 14 15 15 16 16 17 17 18 24 19 18 20 23 21 19 22 22 23
REMARK INDEX MAP 20 24 21 25
ROOT
ATOM      1  C   UNL     1     134.698 123.534 122.603  1.00  0.00    +0.028 C 
ATOM      2  C   UNL     1     135.252 122.737 121.401  1.00  0.00    +0.024 C 
ATOM      3  C   UNL     1     136.406 123.456 120.709  1.00  0.00    +0.081 C 
ATOM      4  N   UNL     1     136.028 124.782 120.228  1.00  0.00    -0.316 NA
ATOM      5  C   UNL     1     135.129 125.519 121.118  1.00  0.00    +0.088 C 
ATOM      6  C   UNL     1     135.144 125.020 122.570  1.00  0.00    +0.048 C 
ATOM      7  H   UNL     1     136.868 125.329 120.036  1.00  0.00    +0.122 HD
ENDROOT
BRANCH   1   8
ATOM      8  C   UNL     1     135.039 122.875 123.936  1.00  0.00    -0.044 A 
ATOM      9  C   UNL     1     135.606 121.693 126.406  1.00  0.00    +0.123 A 
ATOM     10  C   UNL     1     136.643 121.971 125.525  1.00  0.00    +0.039 A 
ATOM     11  C   UNL     1     134.291 121.995 126.079  1.00  0.00    +0.039 A 
ATOM     12  C   UNL     1     136.361 122.563 124.292  1.00  0.00    +0.007 A 
ATOM     13  C   UNL     1     134.007 122.586 124.846  1.00  0.00    +0.007 A 
ATOM     14  F   UNL     1     135.880 121.127 127.589  1.00  0.00    -0.207 F 
ENDBRANCH   1   8
BRANCH   6  15
ATOM     15  C   UNL     1     134.266 125.914 123.466  1.00  0.00    +0.235 C 
BRANCH  15  16
ATOM     16  O   UNL     1     132.888 125.595 123.269  1.00  0.00    -0.493 OA
BRANCH  16  17
ATOM     17  C   UNL     1     132.003 126.032 124.216  1.00  0.00    +0.123 A 
ATOM     18  C   UNL     1     132.353 125.689 125.538  1.00  0.00    +0.050 A 
ATOM     19  C   UNL     1     130.835 126.758 123.971  1.00  0.00    +0.097 A 
ATOM     20  C   UNL     1     131.551 126.064 126.620  1.00  0.00    +0.054 A 
ATOM     21  C   UNL     1     130.061 127.117 125.058  1.00  0.00    +0.169 A 
ATOM     22  C   UNL     1     130.408 126.780 126.345  1.00  0.00    +0.166 A 
ATOM     23  O   UNL     1     128.899 127.821 125.003  1.00  0.00    -0.453 OA
ATOM     24  O   UNL     1     129.510 127.230 127.260  1.00  0.00    -0.454 OA
ATOM     25  C   UNL     1     128.555 127.890 126.403  1.00  0.00    +0.468 C 
ENDBRANCH  16  17
ENDBRANCH  15  16
ENDBRANCH   6  15
TORSDOF 4
ENDMDL
MODEL 13
REMARK VINA RESULT:    -9.131      4.506      7.795
REMARK INTER + INTRA:         -12.189
REMARK INTER:                 -11.161
REMARK INTRA:                  -1.028
REMARK UNBOUND:                -0.923
REMARK SMILES Fc1ccc([C@@H]2CCNC[C@H]2COc2ccc3c(c2)OCO3)cc1
REMARK SMILES IDX 6 1 7 2 8 3 9 4 10 5 11 6 5 8 2 9 3 10 24 11 4 12 23 13 1 14
REMARK SMILES IDX 12 15 13 16 14 17 15 18 19 19 16 20 18 21 17 22 20 23 22 24
REMARK SMILES IDX 21 25
REMARK H PARENT 9 7
REMARK INDEX MAP 8 1 9 2 10 3 11 4 12 5 13 6 34 7 5 8 2 9 3 10 7 11 4 12 6 13
REMARK INDEX MAP 1 14 14 15 15 16 16 17 17 18 24 19 18 20 23 21 19 22 22 23
REMARK INDEX MAP 20 24 21 25
ROOT
ATOM      1  C   UNL     1     134.677 123.811 124.556  1.00  0.00    +0.028 C 
ATOM      2  C   UNL     1     136.148 123.615 124.983  1.00  0.00    +0.024 C 
ATOM      3  C   UNL     1     136.504 122.145 125.187  1.00  0.00    +0.081 C 
ATOM      4  N   UNL     1     135.660 121.502 126.190  1.00  0.00    -0.316 NA
ATOM      5  C   UNL     1     134.258 121.925 126.168  1.00  0.00    +0.088 C 
ATOM      6  C   UNL     1     133.817 122.550 124.836  1.00  0.00    +0.048 C 
ATOM      7  H   UNL     1     135.727 120.488 126.097  1.00  0.00    +0.122 HD
ENDROOT
BRANCH   1   8
ATOM      8  C   UNL     1     134.555 124.262 123.104  1.00  0.00    -0.044 A 
ATOM      9  C   UNL     1     134.387 125.051 120.427  1.00  0.00    +0.123 A 
ATOM     10  C   UNL     1     133.809 125.842 121.412  1.00  0.00    +0.039 A 
ATOM     11  C   UNL     1     135.048 123.876 120.752  1.00  0.00    +0.039 A 
ATOM     12  C   UNL     1     133.894 125.449 122.750  1.00  0.00    +0.007 A 
ATOM     13  C   UNL     1     135.133 123.481 122.088  1.00  0.00    +0.007 A 
ATOM     14  F   UNL     1     134.306 125.432 119.144  1.00  0.00    -0.207 F 
ENDBRANCH   1   8
BRANCH   6  15
ATOM     15  C   UNL     1     132.309 122.862 124.850  1.00  0.00    +0.235 C 
BRANCH  15  16
ATOM     16  O   UNL     1     131.831 122.893 126.195  1.00  0.00    -0.493 OA
BRANCH  16  17
ATOM     17  C   UNL     1     131.244 124.053 126.624  1.00  0.00    +0.123 A 
ATOM     18  C   UNL     1     129.988 123.873 127.238  1.00  0.00    +0.050 A 
ATOM     19  C   UNL     1     131.782 125.336 126.498  1.00  0.00    +0.097 A 
ATOM     20  C   UNL     1     129.261 124.961 127.730  1.00  0.00    +0.054 A 
ATOM     21  C   UNL     1     131.043 126.393 126.993  1.00  0.00    +0.169 A 
ATOM     22  C   UNL     1     129.819 126.212 127.592  1.00  0.00    +0.166 A 
ATOM     23  O   UNL     1     131.412 127.702 126.956  1.00  0.00    -0.453 OA
ATOM     24  O   UNL     1     129.265 127.382 128.007  1.00  0.00    -0.454 OA
ATOM     25  C   UNL     1     130.280 128.323 127.601  1.00  0.00    +0.468 C 
ENDBRANCH  16  17
ENDBRANCH  15  16
ENDBRANCH   6  15
TORSDOF 4
ENDMDL
MODEL 14
REMARK VINA RESULT:    -9.116      3.316      4.541
REMARK INTER + INTRA:         -12.171
REMARK INTER:                 -10.915
REMARK INTRA:                  -1.256
REMARK UNBOUND:                -0.923
REMARK SMILES Fc1ccc([C@@H]2CCNC[C@H]2COc2ccc3c(c2)OCO3)cc1
REMARK SMILES IDX 6 1 7 2 8 3 9 4 10 5 11 6 5 8 2 9 3 10 24 11 4 12 23 13 1 14
REMARK SMILES IDX 12 15 13 16 14 17 15 18 19 19 16 20 18 21 17 22 20 23 22 24
REMARK SMILES IDX 21 25
REMARK H PARENT 9 7
REMARK INDEX MAP 8 1 9 2 10 3 11 4 12 5 13 6 34 7 5 8 2 9 3 10 7 11 4 12 6 13
REMARK INDEX MAP 1 14 14 15 15 16 16 17 17 18 24 19 18 20 23 21 19 22 22 23
REMARK INDEX MAP 20 24 21 25
ROOT
ATOM      1  C   UNL     1     132.899 123.833 124.755  1.00  0.00    +0.028 C 
ATOM      2  C   UNL     1     132.130 122.561 125.173  1.00  0.00    +0.024 C 
ATOM      3  C   UNL     1     132.759 121.870 126.379  1.00  0.00    +0.081 C 
ATOM      4  N   UNL     1     134.149 121.492 126.141  1.00  0.00    -0.316 NA
ATOM      5  C   UNL     1     134.920 122.463 125.363  1.00  0.00    +0.088 C 
ATOM      6  C   UNL     1     134.324 123.879 125.369  1.00  0.00    +0.048 C 
ATOM      7  H   UNL     1     134.610 121.302 127.032  1.00  0.00    +0.122 HD
ENDROOT
BRANCH   1   8
ATOM      8  C   UNL     1     132.116 125.106 125.062  1.00  0.00    -0.044 A 
ATOM      9  C   UNL     1     130.666 127.414 125.686  1.00  0.00    +0.123 A 
ATOM     10  C   UNL     1     130.840 127.052 124.356  1.00  0.00    +0.039 A 
ATOM     11  C   UNL     1     131.200 126.644 126.710  1.00  0.00    +0.039 A 
ATOM     12  C   UNL     1     131.562 125.899 124.044  1.00  0.00    +0.007 A 
ATOM     13  C   UNL     1     131.923 125.492 126.400  1.00  0.00    +0.007 A 
ATOM     14  F   UNL     1     129.970 128.520 125.983  1.00  0.00    -0.207 F 
ENDBRANCH   1   8
BRANCH   6  15
ATOM     15  C   UNL     1     135.248 124.865 124.629  1.00  0.00    +0.235 C 
BRANCH  15  16
ATOM     16  O   UNL     1     135.999 124.173 123.632  1.00  0.00    -0.493 OA
BRANCH  16  17
ATOM     17  C   UNL     1     135.608 124.334 122.330  1.00  0.00    +0.123 A 
ATOM     18  C   UNL     1     134.962 125.560 122.067  1.00  0.00    +0.050 A 
ATOM     19  C   UNL     1     135.796 123.410 121.300  1.00  0.00    +0.097 A 
ATOM     20  C   UNL     1     134.503 125.875 120.785  1.00  0.00    +0.054 A 
ATOM     21  C   UNL     1     135.333 123.747 120.042  1.00  0.00    +0.169 A 
ATOM     22  C   UNL     1     134.705 124.944 119.791  1.00  0.00    +0.166 A 
ATOM     23  O   UNL     1     135.432 122.971 118.929  1.00  0.00    -0.453 OA
ATOM     24  O   UNL     1     134.331 125.072 118.491  1.00  0.00    -0.454 OA
ATOM     25  C   UNL     1     134.795 123.818 117.949  1.00  0.00    +0.468 C 
ENDBRANCH  16  17
ENDBRANCH  15  16
ENDBRANCH   6  15
TORSDOF 4
ENDMDL
MODEL 15
REMARK VINA RESULT:    -8.976      4.456      7.146
REMARK INTER + INTRA:         -11.998
REMARK INTER:                 -11.229
REMARK INTRA:                  -0.769
REMARK UNBOUND:                -0.923
REMARK SMILES Fc1ccc([C@@H]2CCNC[C@H]2COc2ccc3c(c2)OCO3)cc1
REMARK SMILES IDX 6 1 7 2 8 3 9 4 10 5 11 6 5 8 2 9 3 10 24 11 4 12 23 13 1 14
REMARK SMILES IDX 12 15 13 16 14 17 15 18 19 19 16 20 18 21 17 22 20 23 22 24
REMARK SMILES IDX 21 25
REMARK H PARENT 9 7
REMARK INDEX MAP 8 1 9 2 10 3 11 4 12 5 13 6 34 7 5 8 2 9 3 10 7 11 4 12 6 13
REMARK INDEX MAP 1 14 14 15 15 16 16 17 17 18 24 19 18 20 23 21 19 22 22 23
REMARK INDEX MAP 20 24 21 25
ROOT
ATOM      1  C   UNL     1     134.790 125.333 123.110  1.00  0.00    +0.028 C 
ATOM      2  C   UNL     1     136.080 125.994 123.644  1.00  0.00    +0.024 C 
ATOM      3  C   UNL     1     136.786 125.132 124.686  1.00  0.00    +0.081 C 
ATOM      4  N   UNL     1     135.933 124.832 125.832  1.00  0.00    -0.316 NA
ATOM      5  C   UNL     1     134.530 124.579 125.497  1.00  0.00    +0.088 C 
ATOM      6  C   UNL     1     134.302 124.182 124.031  1.00  0.00    +0.048 C 
ATOM      7  H   UNL     1     136.322 124.045 126.353  1.00  0.00    +0.122 HD
ENDROOT
BRANCH   1   8
ATOM      8  C   UNL     1     134.939 124.869 121.664  1.00  0.00    -0.044 A 
ATOM      9  C   UNL     1     135.154 124.056 118.997  1.00  0.00    +0.123 A 
ATOM     10  C   UNL     1     135.732 123.285 119.998  1.00  0.00    +0.039 A 
ATOM     11  C   UNL     1     134.469 125.223 119.302  1.00  0.00    +0.039 A 
ATOM     12  C   UNL     1     135.624 123.690 121.330  1.00  0.00    +0.007 A 
ATOM     13  C   UNL     1     134.360 125.630 120.633  1.00  0.00    +0.007 A 
ATOM     14  F   UNL     1     135.258 123.663 117.720  1.00  0.00    -0.207 F 
ENDBRANCH   1   8
BRANCH   6  15
ATOM     15  C   UNL     1     132.825 123.823 123.783  1.00  0.00    +0.235 C 
BRANCH  15  16
ATOM     16  O   UNL     1     132.076 123.989 124.987  1.00  0.00    -0.493 OA
BRANCH  16  17
ATOM     17  C   UNL     1     131.385 125.161 125.137  1.00  0.00    +0.123 A 
ATOM     18  C   UNL     1     131.215 125.889 123.943  1.00  0.00    +0.050 A 
ATOM     19  C   UNL     1     130.866 125.656 126.336  1.00  0.00    +0.097 A 
ATOM     20  C   UNL     1     130.530 127.108 123.930  1.00  0.00    +0.054 A 
ATOM     21  C   UNL     1     130.194 126.862 126.295  1.00  0.00    +0.169 A 
ATOM     22  C   UNL     1     130.030 127.568 125.127  1.00  0.00    +0.166 A 
ATOM     23  O   UNL     1     129.627 127.488 127.362  1.00  0.00    -0.453 OA
ATOM     24  O   UNL     1     129.340 128.724 125.311  1.00  0.00    -0.454 OA
ATOM     25  C   UNL     1     129.087 128.668 126.730  1.00  0.00    +0.468 C 
ENDBRANCH  16  17
ENDBRANCH  15  16
ENDBRANCH   6  15
TORSDOF 4
ENDMDL
MODEL 16
REMARK VINA RESULT:    -8.810      3.074      4.404
REMARK INTER + INTRA:         -11.794
REMARK INTER:                 -11.620
REMARK INTRA:                  -0.174
REMARK UNBOUND:                -0.923
REMARK SMILES Fc1ccc([C@@H]2CCNC[C@H]2COc2ccc3c(c2)OCO3)cc1
REMARK SMILES IDX 6 1 7 2 8 3 9 4 10 5 11 6 5 8 2 9 3 10 24 11 4 12 23 13 1 14
REMARK SMILES IDX 12 15 13 16 14 17 15 18 19 19 16 20 18 21 17 22 20 23 22 24
REMARK SMILES IDX 21 25
REMARK H PARENT 9 7
REMARK INDEX MAP 8 1 9 2 10 3 11 4 12 5 13 6 34 7 5 8 2 9 3 10 7 11 4 12 6 13
REMARK INDEX MAP 1 14 14 15 15 16 16 17 17 18 24 19 18 20 23 21 19 22 22 23
REMARK INDEX MAP 20 24 21 25
ROOT
ATOM      1  C   UNL     1     132.888 123.280 125.493  1.00  0.00    +0.028 C 
ATOM      2  C   UNL     1     132.790 121.809 125.954  1.00  0.00    +0.024 C 
ATOM      3  C   UNL     1     133.971 121.392 126.824  1.00  0.00    +0.081 C 
ATOM      4  N   UNL     1     135.252 121.561 126.144  1.00  0.00    -0.316 NA
ATOM      5  C   UNL     1     135.342 122.757 125.304  1.00  0.00    +0.088 C 
ATOM      6  C   UNL     1     134.323 123.848 125.663  1.00  0.00    +0.048 C 
ATOM      7  H   UNL     1     136.009 121.548 126.828  1.00  0.00    +0.122 HD
ENDROOT
BRANCH   1   8
ATOM      8  C   UNL     1     131.850 124.166 126.174  1.00  0.00    -0.044 A 
ATOM      9  C   UNL     1     129.995 125.838 127.432  1.00  0.00    +0.123 A 
ATOM     10  C   UNL     1     129.779 124.467 127.414  1.00  0.00    +0.039 A 
ATOM     11  C   UNL     1     131.120 126.392 126.837  1.00  0.00    +0.039 A 
ATOM     12  C   UNL     1     130.706 123.630 126.788  1.00  0.00    +0.007 A 
ATOM     13  C   UNL     1     132.047 125.558 126.209  1.00  0.00    +0.007 A 
ATOM     14  F   UNL     1     129.105 126.638 128.036  1.00  0.00    -0.207 F 
ENDBRANCH   1   8
BRANCH   6  15
ATOM     15  C   UNL     1     134.554 125.114 124.817  1.00  0.00    +0.235 C 
BRANCH  15  16
ATOM     16  O   UNL     1     135.629 124.899 123.903  1.00  0.00    -0.493 OA
BRANCH  16  17
ATOM     17  C   UNL     1     135.323 124.878 122.569  1.00  0.00    +0.123 A 
ATOM     18  C   UNL     1     134.527 125.960 122.142  1.00  0.00    +0.050 A 
ATOM     19  C   UNL     1     135.726 123.904 121.653  1.00  0.00    +0.097 A 
ATOM     20  C   UNL     1     134.129 126.083 120.807  1.00  0.00    +0.054 A 
ATOM     21  C   UNL     1     135.319 124.050 120.340  1.00  0.00    +0.169 A 
ATOM     22  C   UNL     1     134.544 125.108 119.928  1.00  0.00    +0.166 A 
ATOM     23  O   UNL     1     135.619 123.200 119.321  1.00  0.00    -0.453 OA
ATOM     24  O   UNL     1     134.259 125.058 118.601  1.00  0.00    -0.454 OA
ATOM     25  C   UNL     1     134.943 123.847 118.221  1.00  0.00    +0.468 C 
ENDBRANCH  16  17
ENDBRANCH  15  16
ENDBRANCH   6  15
TORSDOF 4
ENDMDL
MODEL 17
REMARK VINA RESULT:    -8.760      4.943      7.803
REMARK INTER + INTRA:         -11.731
REMARK INTER:                 -11.115
REMARK INTRA:                  -0.617
REMARK UNBOUND:                -0.923
REMARK SMILES Fc1ccc([C@@H]2CCNC[C@H]2COc2ccc3c(c2)OCO3)cc1
REMARK SMILES IDX 6 1 7 2 8 3 9 4 10 5 11 6 5 8 2 9 3 10 24 11 4 12 23 13 1 14
REMARK SMILES IDX 12 15 13 16 14 17 15 18 19 19 16 20 18 21 17 22 20 23 22 24
REMARK SMILES IDX 21 25
REMARK H PARENT 9 7
REMARK INDEX MAP 8 1 9 2 10 3 11 4 12 5 13 6 34 7 5 8 2 9 3 10 7 11 4 12 6 13
REMARK INDEX MAP 1 14 14 15 15 16 16 17 17 18 24 19 18 20 23 21 19 22 22 23
REMARK INDEX MAP 20 24 21 25
ROOT
ATOM      1  C   UNL     1     134.845 124.024 123.664  1.00  0.00    +0.028 C 
ATOM      2  C   UNL     1     136.191 123.411 124.110  1.00  0.00    +0.024 C 
ATOM      3  C   UNL     1     136.051 121.956 124.547  1.00  0.00    +0.081 C 
ATOM      4  N   UNL     1     135.103 121.793 125.645  1.00  0.00    -0.316 NA
ATOM      5  C   UNL     1     133.921 122.654 125.562  1.00  0.00    +0.088 C 
ATOM      6  C   UNL     1     133.634 123.182 124.149  1.00  0.00    +0.048 C 
ATOM      7  H   UNL     1     134.826 120.814 125.716  1.00  0.00    +0.122 HD
ENDROOT
BRANCH   1   8
ATOM      8  C   UNL     1     134.793 124.266 122.159  1.00  0.00    -0.044 A 
ATOM      9  C   UNL     1     134.754 124.668 119.392  1.00  0.00    +0.123 A 
ATOM     10  C   UNL     1     134.179 125.614 120.230  1.00  0.00    +0.039 A 
ATOM     11  C   UNL     1     135.350 123.526 119.908  1.00  0.00    +0.039 A 
ATOM     12  C   UNL     1     134.200 125.415 121.612  1.00  0.00    +0.007 A 
ATOM     13  C   UNL     1     135.371 123.325 121.289  1.00  0.00    +0.007 A 
ATOM     14  F   UNL     1     134.734 124.863 118.066  1.00  0.00    -0.207 F 
ENDBRANCH   1   8
BRANCH   6  15
ATOM     15  C   UNL     1     132.318 123.982 124.119  1.00  0.00    +0.235 C 
BRANCH  15  16
ATOM     16  O   UNL     1     132.204 124.776 125.300  1.00  0.00    -0.493 OA
BRANCH  16  17
ATOM     17  C   UNL     1     130.985 124.802 125.921  1.00  0.00    +0.123 A 
ATOM     18  C   UNL     1     130.202 125.933 125.610  1.00  0.00    +0.050 A 
ATOM     19  C   UNL     1     130.494 123.833 126.799  1.00  0.00    +0.097 A 
ATOM     20  C   UNL     1     128.930 126.106 126.164  1.00  0.00    +0.054 A 
ATOM     21  C   UNL     1     129.234 124.029 127.332  1.00  0.00    +0.169 A 
ATOM     22  C   UNL     1     128.474 125.132 127.025  1.00  0.00    +0.166 A 
ATOM     23  O   UNL     1     128.603 123.191 128.198  1.00  0.00    -0.453 OA
ATOM     24  O   UNL     1     127.270 125.127 127.656  1.00  0.00    -0.454 OA
ATOM     25  C   UNL     1     127.358 123.894 128.398  1.00  0.00    +0.468 C 
ENDBRANCH  16  17
ENDBRANCH  15  16
ENDBRANCH   6  15
TORSDOF 4
ENDMDL
MODEL 18
REMARK VINA RESULT:    -8.747      5.355      7.579
REMARK INTER + INTRA:         -11.716
REMARK INTER:                 -10.369
REMARK INTRA:                  -1.347
REMARK UNBOUND:                -0.923
REMARK SMILES Fc1ccc([C@@H]2CCNC[C@H]2COc2ccc3c(c2)OCO3)cc1
REMARK SMILES IDX 6 1 7 2 8 3 9 4 10 5 11 6 5 8 2 9 3 10 24 11 4 12 23 13 1 14
REMARK SMILES IDX 12 15 13 16 14 17 15 18 19 19 16 20 18 21 17 22 20 23 22 24
REMARK SMILES IDX 21 25
REMARK H PARENT 9 7
REMARK INDEX MAP 8 1 9 2 10 3 11 4 12 5 13 6 34 7 5 8 2 9 3 10 7 11 4 12 6 13
REMARK INDEX MAP 1 14 14 15 15 16 16 17 17 18 24 19 18 20 23 21 19 22 22 23
REMARK INDEX MAP 20 24 21 25
ROOT
ATOM      1  C   UNL     1     129.267 126.135 126.930  1.00  0.00    +0.028 C 
ATOM      2  C   UNL     1     127.815 126.598 127.185  1.00  0.00    +0.024 C 
ATOM      3  C   UNL     1     127.086 125.704 128.183  1.00  0.00    +0.081 C 
ATOM      4  N   UNL     1     127.040 124.309 127.751  1.00  0.00    -0.316 NA
ATOM      5  C   UNL     1     128.258 123.836 127.090  1.00  0.00    +0.088 C 
ATOM      6  C   UNL     1     129.504 124.677 127.404  1.00  0.00    +0.048 C 
ATOM      7  H   UNL     1     126.810 123.712 128.546  1.00  0.00    +0.122 HD
ENDROOT
BRANCH   1   8
ATOM      8  C   UNL     1     130.289 127.094 127.532  1.00  0.00    -0.044 A 
ATOM      9  C   UNL     1     132.208 128.835 128.584  1.00  0.00    +0.123 A 
ATOM     10  C   UNL     1     131.221 128.321 129.414  1.00  0.00    +0.039 A 
ATOM     11  C   UNL     1     132.259 128.495 127.239  1.00  0.00    +0.039 A 
ATOM     12  C   UNL     1     130.263 127.450 128.890  1.00  0.00    +0.007 A 
ATOM     13  C   UNL     1     131.302 127.625 126.713  1.00  0.00    +0.007 A 
ATOM     14  F   UNL     1     133.127 129.668 129.090  1.00  0.00    -0.207 F 
ENDBRANCH   1   8
BRANCH   6  15
ATOM     15  C   UNL     1     130.760 124.053 126.769  1.00  0.00    +0.235 C 
BRANCH  15  16
ATOM     16  O   UNL     1     130.729 124.231 125.353  1.00  0.00    -0.493 OA
BRANCH  16  17
ATOM     17  C   UNL     1     131.872 124.688 124.755  1.00  0.00    +0.123 A 
ATOM     18  C   UNL     1     133.034 124.545 125.541  1.00  0.00    +0.050 A 
ATOM     19  C   UNL     1     131.957 125.259 123.483  1.00  0.00    +0.097 A 
ATOM     20  C   UNL     1     134.282 124.964 125.070  1.00  0.00    +0.054 A 
ATOM     21  C   UNL     1     133.202 125.664 123.042  1.00  0.00    +0.169 A 
ATOM     22  C   UNL     1     134.332 125.521 123.812  1.00  0.00    +0.166 A 
ATOM     23  O   UNL     1     133.467 126.235 121.836  1.00  0.00    -0.453 OA
ATOM     24  O   UNL     1     135.447 125.983 123.188  1.00  0.00    -0.454 OA
ATOM     25  C   UNL     1     134.893 126.434 121.936  1.00  0.00    +0.468 C 
ENDBRANCH  16  17
ENDBRANCH  15  16
ENDBRANCH   6  15
TORSDOF 4
ENDMDL
MODEL 19
REMARK VINA RESULT:    -8.746      5.873      8.254
REMARK INTER + INTRA:         -11.714
REMARK INTER:                 -10.842
REMARK INTRA:                  -0.872
REMARK UNBOUND:                -0.923
REMARK SMILES Fc1ccc([C@@H]2CCNC[C@H]2COc2ccc3c(c2)OCO3)cc1
REMARK SMILES IDX 6 1 7 2 8 3 9 4 10 5 11 6 5 8 2 9 3 10 24 11 4 12 23 13 1 14
REMARK SMILES IDX 12 15 13 16 14 17 15 18 19 19 16 20 18 21 17 22 20 23 22 24
REMARK SMILES IDX 21 25
REMARK H PARENT 9 7
REMARK INDEX MAP 8 1 9 2 10 3 11 4 12 5 13 6 34 7 5 8 2 9 3 10 7 11 4 12 6 13
REMARK INDEX MAP 1 14 14 15 15 16 16 17 17 18 24 19 18 20 23 21 19 22 22 23
REMARK INDEX MAP 20 24 21 25
ROOT
ATOM      1  C   UNL     1     128.695 125.980 127.396  1.00  0.00    +0.028 C 
ATOM      2  C   UNL     1     127.404 126.310 128.177  1.00  0.00    +0.024 C 
ATOM      3  C   UNL     1     127.063 125.243 129.214  1.00  0.00    +0.081 C 
ATOM      4  N   UNL     1     126.897 123.920 128.618  1.00  0.00    -0.316 NA
ATOM      5  C   UNL     1     127.832 123.620 127.532  1.00  0.00    +0.088 C 
ATOM      6  C   UNL     1     129.099 124.488 127.544  1.00  0.00    +0.048 C 
ATOM      7  H   UNL     1     126.954 123.207 129.346  1.00  0.00    +0.122 HD
ENDROOT
BRANCH   1   8
ATOM      8  C   UNL     1     129.845 126.911 127.765  1.00  0.00    -0.044 A 
ATOM      9  C   UNL     1     131.988 128.596 128.388  1.00  0.00    +0.123 A 
ATOM     10  C   UNL     1     131.109 128.206 129.390  1.00  0.00    +0.039 A 
ATOM     11  C   UNL     1     131.819 128.160 127.082  1.00  0.00    +0.039 A 
ATOM     12  C   UNL     1     130.039 127.363 129.081  1.00  0.00    +0.007 A 
ATOM     13  C   UNL     1     130.750 127.318 126.770  1.00  0.00    +0.007 A 
ATOM     14  F   UNL     1     133.014 129.403 128.689  1.00  0.00    -0.207 F 
ENDBRANCH   1   8
BRANCH   6  15
ATOM     15  C   UNL     1     130.082 124.038 126.447  1.00  0.00    +0.235 C 
BRANCH  15  16
ATOM     16  O   UNL     1     130.833 122.911 126.900  1.00  0.00    -0.493 OA
BRANCH  16  17
ATOM     17  C   UNL     1     132.163 122.877 126.582  1.00  0.00    +0.123 A 
ATOM     18  C   UNL     1     132.743 124.147 126.382  1.00  0.00    +0.050 A 
ATOM     19  C   UNL     1     132.943 121.726 126.448  1.00  0.00    +0.097 A 
ATOM     20  C   UNL     1     134.095 124.281 126.051  1.00  0.00    +0.054 A 
ATOM     21  C   UNL     1     134.276 121.887 126.121  1.00  0.00    +0.169 A 
ATOM     22  C   UNL     1     134.836 123.127 125.928  1.00  0.00    +0.166 A 
ATOM     23  O   UNL     1     135.176 120.881 125.952  1.00  0.00    -0.453 OA
ATOM     24  O   UNL     1     136.157 123.058 125.615  1.00  0.00    -0.454 OA
ATOM     25  C   UNL     1     136.366 121.632 125.632  1.00  0.00    +0.468 C 
ENDBRANCH  16  17
ENDBRANCH  15  16
ENDBRANCH   6  15
TORSDOF 4
ENDMDL
MODEL 20
REMARK VINA RESULT:    -8.701      4.509      7.066
REMARK INTER + INTRA:         -11.659
REMARK INTER:                 -10.973
REMARK INTRA:                  -0.685
REMARK UNBOUND:                -0.923
REMARK SMILES Fc1ccc([C@@H]2CCNC[C@H]2COc2ccc3c(c2)OCO3)cc1
REMARK SMILES IDX 6 1 7 2 8 3 9 4 10 5 11 6 5 8 2 9 3 10 24 11 4 12 23 13 1 14
REMARK SMILES IDX 12 15 13 16 14 17 15 18 19 19 16 20 18 21 17 22 20 23 22 24
REMARK SMILES IDX 21 25
REMARK H PARENT 9 7
REMARK INDEX MAP 8 1 9 2 10 3 11 4 12 5 13 6 34 7 5 8 2 9 3 10 7 11 4 12 6 13
REMARK INDEX MAP 1 14 14 15 15 16 16 17 17 18 24 19 18 20 23 21 19 22 22 23
REMARK INDEX MAP 20 24 21 25
ROOT
ATOM      1  C   UNL     1     135.816 123.551 124.349  1.00  0.00    +0.028 C 
ATOM      2  C   UNL     1     136.450 122.209 124.778  1.00  0.00    +0.024 C 
ATOM      3  C   UNL     1     135.429 121.250 125.381  1.00  0.00    +0.081 C 
ATOM      4  N   UNL     1     134.753 121.815 126.546  1.00  0.00    -0.316 NA
ATOM      5  C   UNL     1     134.448 123.243 126.438  1.00  0.00    +0.088 C 
ATOM      6  C   UNL     1     134.421 123.767 124.995  1.00  0.00    +0.048 C 
ATOM      7  H   UNL     1     133.904 121.283 126.742  1.00  0.00    +0.122 HD
ENDROOT
BRANCH   1   8
ATOM      8  C   UNL     1     135.760 123.701 122.832  1.00  0.00    -0.044 A 
ATOM      9  C   UNL     1     135.665 123.908 120.045  1.00  0.00    +0.123 A 
ATOM     10  C   UNL     1     136.051 125.007 120.801  1.00  0.00    +0.039 A 
ATOM     11  C   UNL     1     135.329 122.706 120.652  1.00  0.00    +0.039 A 
ATOM     12  C   UNL     1     136.100 124.904 122.193  1.00  0.00    +0.007 A 
ATOM     13  C   UNL     1     135.376 122.602 122.043  1.00  0.00    +0.007 A 
ATOM     14  F   UNL     1     135.622 124.009 118.709  1.00  0.00    -0.207 F 
ENDBRANCH   1   8
BRANCH   6  15
ATOM     15  C   UNL     1     133.982 125.243 124.956  1.00  0.00    +0.235 C 
BRANCH  15  16
ATOM     16  O   UNL     1     133.127 125.526 126.064  1.00  0.00    -0.493 OA
BRANCH  16  17
ATOM     17  C   UNL     1     131.906 126.080 125.786  1.00  0.00    +0.123 A 
ATOM     18  C   UNL     1     131.252 126.629 126.908  1.00  0.00    +0.050 A 
ATOM     19  C   UNL     1     131.299 126.132 124.530  1.00  0.00    +0.097 A 
ATOM     20  C   UNL     1     129.997 127.233 126.789  1.00  0.00    +0.054 A 
ATOM     21  C   UNL     1     130.058 126.734 124.440  1.00  0.00    +0.169 A 
ATOM     22  C   UNL     1     129.425 127.269 125.537  1.00  0.00    +0.166 A 
ATOM     23  O   UNL     1     129.326 126.872 123.302  1.00  0.00    -0.453 OA
ATOM     24  O   UNL     1     128.218 127.812 125.227  1.00  0.00    -0.454 OA
ATOM     25  C   UNL     1     128.161 127.557 123.809  1.00  0.00    +0.468 C 
ENDBRANCH  16  17
ENDBRANCH  15  16
ENDBRANCH   6  15
TORSDOF 4
ENDMDL
