MODEL 1
REMARK VINA RESULT:   -10.409      0.000      0.000
REMARK INTER + INTRA:         -13.725
REMARK INTER:                 -12.844
REMARK INTRA:                  -0.881
REMARK UNBOUND:                -0.881
REMARK SMILES Fc1ccc([C@@H]2CCNC[C@H]2COc2ccc3c(c2)OCO3)cc1
REMARK SMILES IDX 6 1 7 2 8 3 9 4 10 5 11 6 5 8 2 9 3 10 24 11 4 12 23 13 1 14
REMARK SMILES IDX 12 15 13 16 14 17 15 18 19 19 16 20 18 21 17 22 20 23 22 24
REMARK SMILES IDX 21 25
REMARK H PARENT 9 7
REMARK INDEX MAP 8 1 9 2 10 3 11 4 12 5 13 6 34 7 5 8 2 9 3 10 7 11 4 12 6 13
REMARK INDEX MAP 1 14 14 15 15 16 16 17 17 18 24 19 18 20 23 21 19 22 22 23
REMARK INDEX MAP 20 24 21 25
ROOT
ATOM      1  C   UNL     1     136.225 124.742 124.275  1.00  0.00    +0.028 C 
ATOM      2  C   UNL     1     137.230 125.359 125.274  1.00  0.00    +0.024 C 
ATOM      3  C   UNL     1     136.847 126.778 125.683  1.00  0.00    +0.081 C 
ATOM      4  N   UNL     1     136.747 127.679 124.538  1.00  0.00    -0.316 NA
ATOM      5  C   UNL     1     136.165 127.076 123.338  1.00  0.00    +0.088 C 
ATOM      6  C   UNL     1     135.325 125.821 123.616  1.00  0.00    +0.048 C 
ATOM      7  H   UNL     1     136.226 128.516 124.805  1.00  0.00    +0.122 HD
ENDROOT
BRANCH   1   8
ATOM      8  C   UNL     1     135.395 123.630 124.908  1.00  0.00    -0.044 A 
ATOM      9  C   UNL     1     133.858 121.633 126.120  1.00  0.00    +0.123 A 
ATOM     10  C   UNL     1     134.872 121.278 125.239  1.00  0.00    +0.039 A 
ATOM     11  C   UNL     1     133.598 122.965 126.409  1.00  0.00    +0.039 A 
ATOM     12  C   UNL     1     135.641 122.274 124.635  1.00  0.00    +0.007 A 
ATOM     13  C   UNL     1     134.365 123.963 125.805  1.00  0.00    +0.007 A 
ATOM     14  F   UNL     1     133.123 120.674 126.700  1.00  0.00    -0.207 F 
ENDBRANCH   1   8
BRANCH   6  15
ATOM     15  C   UNL     1     134.654 125.313 122.326  1.00  0.00    +0.235 C 
BRANCH  15  16
ATOM     16  O   UNL     1     135.607 125.280 121.263  1.00  0.00    -0.493 OA
BRANCH  16  17
ATOM     17  C   UNL     1     135.299 124.516 120.170  1.00  0.00    +0.123 A 
ATOM     18  C   UNL     1     134.586 125.204 119.166  1.00  0.00    +0.050 A 
ATOM     19  C   UNL     1     135.627 123.170 119.994  1.00  0.00    +0.097 A 
ATOM     20  C   UNL     1     134.197 124.562 117.986  1.00  0.00    +0.054 A 
ATOM     21  C   UNL     1     135.231 122.560 118.819  1.00  0.00    +0.169 A 
ATOM     22  C   UNL     1     134.537 123.235 117.843  1.00  0.00    +0.166 A 
ATOM     23  O   UNL     1     135.465 121.263 118.484  1.00  0.00    -0.453 OA
ATOM     24  O   UNL     1     134.249 122.450 116.773  1.00  0.00    -0.454 OA
ATOM     25  C   UNL     1     134.839 121.201 117.184  1.00  0.00    +0.468 C 
ENDBRANCH  16  17
ENDBRANCH  15  16
ENDBRANCH   6  15
TORSDOF 4
ENDMDL
MODEL 2
REMARK VINA RESULT:   -10.022      3.010      5.209
REMARK INTER + INTRA:         -13.247
REMARK INTER:                 -11.213
REMARK INTRA:                  -2.034
REMARK UNBOUND:                -0.881
REMARK SMILES Fc1ccc([C@@H]2CCNC[C@H]2COc2ccc3c(c2)OCO3)cc1
REMARK SMILES IDX 6 1 7 2 8 3 9 4 10 5 11 6 5 8 2 9 3 10 24 11 4 12 23 13 1 14
REMARK SMILES IDX 12 15 13 16 14 17 15 18 19 19 16 20 18 21 17 22 20 23 22 24
REMARK SMILES IDX 21 25
REMARK H PARENT 9 7
REMARK INDEX MAP 8 1 9 2 10 3 11 4 12 5 13 6 34 7 5 8 2 9 3 10 7 11 4 12 6 13
REMARK INDEX MAP 1 14 14 15 15 16 16 17 17 18 24 19 18 20 23 21 19 22 22 23
REMARK INDEX MAP 20 24 21 25
ROOT
ATOM      1  C   UNL     1     136.218 124.837 124.081  1.00  0.00    +0.028 C 
ATOM      2  C   UNL     1     137.256 125.634 124.901  1.00  0.00    +0.024 C 
ATOM      3  C   UNL     1     136.784 127.051 125.215  1.00  0.00    +0.081 C 
ATOM      4  N   UNL     1     136.484 127.819 124.010  1.00  0.00    -0.316 NA
ATOM      5  C   UNL     1     135.844 127.049 122.942  1.00  0.00    +0.088 C 
ATOM      6  C   UNL     1     135.158 125.763 123.426  1.00  0.00    +0.048 C 
ATOM      7  H   UNL     1     135.917 128.631 124.253  1.00  0.00    +0.122 HD
ENDROOT
BRANCH   1   8
ATOM      8  C   UNL     1     135.565 123.729 124.901  1.00  0.00    -0.044 A 
ATOM      9  C   UNL     1     134.371 121.739 126.462  1.00  0.00    +0.123 A 
ATOM     10  C   UNL     1     135.029 121.389 125.290  1.00  0.00    +0.039 A 
ATOM     11  C   UNL     1     134.300 123.064 126.872  1.00  0.00    +0.039 A 
ATOM     12  C   UNL     1     135.627 122.382 124.511  1.00  0.00    +0.007 A 
ATOM     13  C   UNL     1     134.896 124.058 126.094  1.00  0.00    +0.007 A 
ATOM     14  F   UNL     1     133.801 120.784 127.209  1.00  0.00    -0.207 F 
ENDBRANCH   1   8
BRANCH   6  15
ATOM     15  C   UNL     1     134.412 125.071 122.270  1.00  0.00    +0.235 C 
BRANCH  15  16
ATOM     16  O   UNL     1     133.020 125.380 122.336  1.00  0.00    -0.493 OA
BRANCH  16  17
ATOM     17  C   UNL     1     132.331 124.937 123.432  1.00  0.00    +0.123 A 
ATOM     18  C   UNL     1     132.189 123.535 123.498  1.00  0.00    +0.050 A 
ATOM     19  C   UNL     1     131.788 125.741 124.437  1.00  0.00    +0.097 A 
ATOM     20  C   UNL     1     131.511 122.926 124.558  1.00  0.00    +0.054 A 
ATOM     21  C   UNL     1     131.123 125.113 125.473  1.00  0.00    +0.169 A 
ATOM     22  C   UNL     1     130.988 123.746 125.533  1.00  0.00    +0.166 A 
ATOM     23  O   UNL     1     130.537 125.737 126.530  1.00  0.00    -0.453 OA
ATOM     24  O   UNL     1     130.302 123.339 126.633  1.00  0.00    -0.454 OA
ATOM     25  C   UNL     1     130.019 124.606 127.261  1.00  0.00    +0.468 C 
ENDBRANCH  16  17
ENDBRANCH  15  16
ENDBRANCH   6  15
TORSDOF 4
ENDMDL
MODEL 3
REMARK VINA RESULT:    -9.667      2.389      3.515
REMARK INTER + INTRA:         -12.809
REMARK INTER:                 -11.741
REMARK INTRA:                  -1.068
REMARK UNBOUND:                -0.881
REMARK SMILES Fc1ccc([C@@H]2CCNC[C@H]2COc2ccc3c(c2)OCO3)cc1
REMARK SMILES IDX 6 1 7 2 8 3 9 4 10 5 11 6 5 8 2 9 3 10 24 11 4 12 23 13 1 14
REMARK SMILES IDX 12 15 13 16 14 17 15 18 19 19 16 20 18 21 17 22 20 23 22 24
REMARK SMILES IDX 21 25
REMARK H PARENT 9 7
REMARK INDEX MAP 8 1 9 2 10 3 11 4 12 5 13 6 34 7 5 8 2 9 3 10 7 11 4 12 6 13
REMARK INDEX MAP 1 14 14 15 15 16 16 17 17 18 24 19 18 20 23 21 19 22 22 23
REMARK INDEX MAP 20 24 21 25
ROOT
ATOM      1  C   UNL     1     133.059 124.218 126.341  1.00  0.00    +0.028 C 
ATOM      2  C   UNL     1     131.646 123.712 126.704  1.00  0.00    +0.024 C 
ATOM      3  C   UNL     1     130.698 123.724 125.509  1.00  0.00    +0.081 C 
ATOM      4  N   UNL     1     130.558 125.055 124.922  1.00  0.00    -0.316 NA
ATOM      5  C   UNL     1     131.794 125.839 124.891  1.00  0.00    +0.088 C 
ATOM      6  C   UNL     1     133.071 124.993 124.996  1.00  0.00    +0.048 C 
ATOM      7  H   UNL     1     130.161 124.976 123.986  1.00  0.00    +0.122 HD
ENDROOT
BRANCH   1   8
ATOM      8  C   UNL     1     134.091 123.095 126.350  1.00  0.00    -0.044 A 
ATOM      9  C   UNL     1     136.023 121.074 126.408  1.00  0.00    +0.123 A 
ATOM     10  C   UNL     1     135.147 121.154 125.333  1.00  0.00    +0.039 A 
ATOM     11  C   UNL     1     135.955 121.984 127.454  1.00  0.00    +0.039 A 
ATOM     12  C   UNL     1     134.183 122.164 125.302  1.00  0.00    +0.007 A 
ATOM     13  C   UNL     1     134.992 122.994 127.425  1.00  0.00    +0.007 A 
ATOM     14  F   UNL     1     136.948 120.105 126.434  1.00  0.00    -0.207 F 
ENDBRANCH   1   8
BRANCH   6  15
ATOM     15  C   UNL     1     134.326 125.873 124.840  1.00  0.00    +0.235 C 
BRANCH  15  16
ATOM     16  O   UNL     1     135.319 125.175 124.088  1.00  0.00    -0.493 OA
BRANCH  16  17
ATOM     17  C   UNL     1     135.130 125.082 122.736  1.00  0.00    +0.123 A 
ATOM     18  C   UNL     1     134.549 126.227 122.154  1.00  0.00    +0.050 A 
ATOM     19  C   UNL     1     135.456 123.983 121.938  1.00  0.00    +0.097 A 
ATOM     20  C   UNL     1     134.292 126.289 120.780  1.00  0.00    +0.054 A 
ATOM     21  C   UNL     1     135.192 124.071 120.585  1.00  0.00    +0.169 A 
ATOM     22  C   UNL     1     134.627 125.190 120.021  1.00  0.00    +0.166 A 
ATOM     23  O   UNL     1     135.445 123.100 119.665  1.00  0.00    -0.453 OA
ATOM     24  O   UNL     1     134.454 125.065 118.679  1.00  0.00    -0.454 OA
ATOM     25  C   UNL     1     134.975 123.739 118.459  1.00  0.00    +0.468 C 
ENDBRANCH  16  17
ENDBRANCH  15  16
ENDBRANCH   6  15
TORSDOF 4
ENDMDL
MODEL 4
REMARK VINA RESULT:    -9.570      2.897      4.309
REMARK INTER + INTRA:         -12.689
REMARK INTER:                 -11.382
REMARK INTRA:                  -1.307
REMARK UNBOUND:                -0.881
REMARK SMILES Fc1ccc([C@@H]2CCNC[C@H]2COc2ccc3c(c2)OCO3)cc1
REMARK SMILES IDX 6 1 7 2 8 3 9 4 10 5 11 6 5 8 2 9 3 10 24 11 4 12 23 13 1 14
REMARK SMILES IDX 12 15 13 16 14 17 15 18 19 19 16 20 18 21 17 22 20 23 22 24
REMARK SMILES IDX 21 25
REMARK H PARENT 9 7
REMARK INDEX MAP 8 1 9 2 10 3 11 4 12 5 13 6 34 7 5 8 2 9 3 10 7 11 4 12 6 13
REMARK INDEX MAP 1 14 14 15 15 16 16 17 17 18 24 19 18 20 23 21 19 22 22 23
REMARK INDEX MAP 20 24 21 25
ROOT
ATOM      1  C   UNL     1     131.728 124.584 126.496  1.00  0.00    +0.028 C 
ATOM      2  C   UNL     1     130.448 124.133 127.233  1.00  0.00    +0.024 C 
ATOM      3  C   UNL     1     129.232 124.085 126.312  1.00  0.00    +0.081 C 
ATOM      4  N   UNL     1     128.955 125.376 125.689  1.00  0.00    -0.316 NA
ATOM      5  C   UNL     1     130.147 126.132 125.297  1.00  0.00    +0.088 C 
ATOM      6  C   UNL     1     131.407 125.269 125.140  1.00  0.00    +0.048 C 
ATOM      7  H   UNL     1     128.337 125.244 124.887  1.00  0.00    +0.122 HD
ENDROOT
BRANCH   1   8
ATOM      8  C   UNL     1     132.726 123.443 126.325  1.00  0.00    -0.044 A 
ATOM      9  C   UNL     1     134.607 121.398 126.012  1.00  0.00    +0.123 A 
ATOM     10  C   UNL     1     133.292 121.185 125.620  1.00  0.00    +0.039 A 
ATOM     11  C   UNL     1     135.002 122.612 126.556  1.00  0.00    +0.039 A 
ATOM     12  C   UNL     1     132.352 122.207 125.774  1.00  0.00    +0.007 A 
ATOM     13  C   UNL     1     134.064 123.634 126.712  1.00  0.00    +0.007 A 
ATOM     14  F   UNL     1     135.507 120.416 125.861  1.00  0.00    -0.207 F 
ENDBRANCH   1   8
BRANCH   6  15
ATOM     15  C   UNL     1     132.586 126.110 124.617  1.00  0.00    +0.235 C 
BRANCH  15  16
ATOM     16  O   UNL     1     132.494 126.248 123.199  1.00  0.00    -0.493 OA
BRANCH  16  17
ATOM     17  C   UNL     1     133.329 125.474 122.440  1.00  0.00    +0.123 A 
ATOM     18  C   UNL     1     134.067 124.525 123.176  1.00  0.00    +0.050 A 
ATOM     19  C   UNL     1     133.490 125.561 121.055  1.00  0.00    +0.097 A 
ATOM     20  C   UNL     1     134.964 123.658 122.544  1.00  0.00    +0.054 A 
ATOM     21  C   UNL     1     134.382 124.692 120.456  1.00  0.00    +0.169 A 
ATOM     22  C   UNL     1     135.098 123.768 121.178  1.00  0.00    +0.166 A 
ATOM     23  O   UNL     1     134.661 124.637 119.126  1.00  0.00    -0.453 OA
ATOM     24  O   UNL     1     135.916 123.016 120.395  1.00  0.00    -0.454 OA
ATOM     25  C   UNL     1     135.634 123.571 119.095  1.00  0.00    +0.468 C 
ENDBRANCH  16  17
ENDBRANCH  15  16
ENDBRANCH   6  15
TORSDOF 4
ENDMDL
MODEL 5
REMARK VINA RESULT:    -9.414      3.953      6.739
REMARK INTER + INTRA:         -12.496
REMARK INTER:                 -11.408
REMARK INTRA:                  -1.088
REMARK UNBOUND:                -0.881
REMARK SMILES Fc1ccc([C@@H]2CCNC[C@H]2COc2ccc3c(c2)OCO3)cc1
REMARK SMILES IDX 6 1 7 2 8 3 9 4 10 5 11 6 5 8 2 9 3 10 24 11 4 12 23 13 1 14
REMARK SMILES IDX 12 15 13 16 14 17 15 18 19 19 16 20 18 21 17 22 20 23 22 24
REMARK SMILES IDX 21 25
REMARK H PARENT 9 7
REMARK INDEX MAP 8 1 9 2 10 3 11 4 12 5 13 6 34 7 5 8 2 9 3 10 7 11 4 12 6 13
REMARK INDEX MAP 1 14 14 15 15 16 16 17 17 18 24 19 18 20 23 21 19 22 22 23
REMARK INDEX MAP 20 24 21 25
ROOT
ATOM      1  C   UNL     1     134.735 123.182 122.843  1.00  0.00    +0.028 C 
ATOM      2  C   UNL     1     136.066 123.384 122.086  1.00  0.00    +0.024 C 
ATOM      3  C   UNL     1     136.310 124.844 121.717  1.00  0.00    +0.081 C 
ATOM      4  N   UNL     1     135.239 125.397 120.892  1.00  0.00    -0.316 NA
ATOM      5  C   UNL     1     133.895 124.943 121.255  1.00  0.00    +0.088 C 
ATOM      6  C   UNL     1     133.786 124.400 122.687  1.00  0.00    +0.048 C 
ATOM      7  H   UNL     1     135.287 126.416 120.906  1.00  0.00    +0.122 HD
ENDROOT
BRANCH   1   8
ATOM      8  C   UNL     1     134.957 122.828 124.311  1.00  0.00    -0.044 A 
ATOM      9  C   UNL     1     135.347 122.115 126.986  1.00  0.00    +0.123 A 
ATOM     10  C   UNL     1     135.057 123.434 126.664  1.00  0.00    +0.039 A 
ATOM     11  C   UNL     1     135.444 121.144 125.999  1.00  0.00    +0.039 A 
ATOM     12  C   UNL     1     134.860 123.791 125.328  1.00  0.00    +0.007 A 
ATOM     13  C   UNL     1     135.248 121.499 124.664  1.00  0.00    +0.007 A 
ATOM     14  F   UNL     1     135.533 121.775 128.269  1.00  0.00    -0.207 F 
ENDBRANCH   1   8
BRANCH   6  15
ATOM     15  C   UNL     1     132.326 124.052 123.032  1.00  0.00    +0.235 C 
BRANCH  15  16
ATOM     16  O   UNL     1     131.560 125.249 123.169  1.00  0.00    -0.493 OA
BRANCH  16  17
ATOM     17  C   UNL     1     131.189 125.613 124.435  1.00  0.00    +0.123 A 
ATOM     18  C   UNL     1     131.262 124.571 125.381  1.00  0.00    +0.050 A 
ATOM     19  C   UNL     1     130.764 126.884 124.829  1.00  0.00    +0.097 A 
ATOM     20  C   UNL     1     130.916 124.783 126.720  1.00  0.00    +0.054 A 
ATOM     21  C   UNL     1     130.429 127.067 126.157  1.00  0.00    +0.169 A 
ATOM     22  C   UNL     1     130.503 126.047 127.076  1.00  0.00    +0.166 A 
ATOM     23  O   UNL     1     129.998 128.232 126.711  1.00  0.00    -0.453 OA
ATOM     24  O   UNL     1     130.129 126.442 128.322  1.00  0.00    -0.454 OA
ATOM     25  C   UNL     1     129.811 127.828 128.084  1.00  0.00    +0.468 C 
ENDBRANCH  16  17
ENDBRANCH  15  16
ENDBRANCH   6  15
TORSDOF 4
ENDMDL
MODEL 6
REMARK VINA RESULT:    -9.396      3.789      5.476
REMARK INTER + INTRA:         -12.475
REMARK INTER:                 -10.754
REMARK INTRA:                  -1.721
REMARK UNBOUND:                -0.881
REMARK SMILES Fc1ccc([C@@H]2CCNC[C@H]2COc2ccc3c(c2)OCO3)cc1
REMARK SMILES IDX 6 1 7 2 8 3 9 4 10 5 11 6 5 8 2 9 3 10 24 11 4 12 23 13 1 14
REMARK SMILES IDX 12 15 13 16 14 17 15 18 19 19 16 20 18 21 17 22 20 23 22 24
REMARK SMILES IDX 21 25
REMARK H PARENT 9 7
REMARK INDEX MAP 8 1 9 2 10 3 11 4 12 5 13 6 34 7 5 8 2 9 3 10 7 11 4 12 6 13
REMARK INDEX MAP 1 14 14 15 15 16 16 17 17 18 24 19 18 20 23 21 19 22 22 23
REMARK INDEX MAP 20 24 21 25
ROOT
ATOM      1  C   UNL     1     130.684 126.270 126.529  1.00  0.00    +0.028 C 
ATOM      2  C   UNL     1     129.865 126.333 127.836  1.00  0.00    +0.024 C 
ATOM      3  C   UNL     1     128.374 126.113 127.600  1.00  0.00    +0.081 C 
ATOM      4  N   UNL     1     127.807 127.089 126.673  1.00  0.00    -0.316 NA
ATOM      5  C   UNL     1     128.685 127.450 125.558  1.00  0.00    +0.088 C 
ATOM      6  C   UNL     1     129.786 126.418 125.272  1.00  0.00    +0.048 C 
ATOM      7  H   UNL     1     126.910 126.750 126.325  1.00  0.00    +0.122 HD
ENDROOT
BRANCH   1   8
ATOM      8  C   UNL     1     131.553 125.019 126.454  1.00  0.00    -0.044 A 
ATOM      9  C   UNL     1     133.094 122.688 126.344  1.00  0.00    +0.123 A 
ATOM     10  C   UNL     1     133.723 123.926 126.352  1.00  0.00    +0.039 A 
ATOM     11  C   UNL     1     131.710 122.591 126.392  1.00  0.00    +0.039 A 
ATOM     12  C   UNL     1     132.955 125.090 126.409  1.00  0.00    +0.007 A 
ATOM     13  C   UNL     1     130.940 123.753 126.447  1.00  0.00    +0.007 A 
ATOM     14  F   UNL     1     133.835 121.572 126.292  1.00  0.00    -0.207 F 
ENDBRANCH   1   8
BRANCH   6  15
ATOM     15  C   UNL     1     130.592 126.809 124.019  1.00  0.00    +0.235 C 
BRANCH  15  16
ATOM     16  O   UNL     1     130.883 125.645 123.245  1.00  0.00    -0.493 OA
BRANCH  16  17
ATOM     17  C   UNL     1     132.191 125.431 122.903  1.00  0.00    +0.123 A 
ATOM     18  C   UNL     1     132.577 124.075 122.911  1.00  0.00    +0.050 A 
ATOM     19  C   UNL     1     133.119 126.419 122.566  1.00  0.00    +0.097 A 
ATOM     20  C   UNL     1     133.881 123.693 122.583  1.00  0.00    +0.054 A 
ATOM     21  C   UNL     1     134.401 126.014 122.246  1.00  0.00    +0.169 A 
ATOM     22  C   UNL     1     134.772 124.690 122.254  1.00  0.00    +0.166 A 
ATOM     23  O   UNL     1     135.426 126.836 121.895  1.00  0.00    -0.453 OA
ATOM     24  O   UNL     1     136.074 124.513 121.909  1.00  0.00    -0.454 OA
ATOM     25  C   UNL     1     136.484 125.877 121.682  1.00  0.00    +0.468 C 
ENDBRANCH  16  17
ENDBRANCH  15  16
ENDBRANCH   6  15
TORSDOF 4
ENDMDL
MODEL 7
REMARK VINA RESULT:    -9.366      4.122      6.591
REMARK INTER + INTRA:         -12.438
REMARK INTER:                 -11.476
REMARK INTRA:                  -0.962
REMARK UNBOUND:                -0.881
REMARK SMILES Fc1ccc([C@@H]2CCNC[C@H]2COc2ccc3c(c2)OCO3)cc1
REMARK SMILES IDX 6 1 7 2 8 3 9 4 10 5 11 6 5 8 2 9 3 10 24 11 4 12 23 13 1 14
REMARK SMILES IDX 12 15 13 16 14 17 15 18 19 19 16 20 18 21 17 22 20 23 22 24
REMARK SMILES IDX 21 25
REMARK H PARENT 9 7
REMARK INDEX MAP 8 1 9 2 10 3 11 4 12 5 13 6 34 7 5 8 2 9 3 10 7 11 4 12 6 13
REMARK INDEX MAP 1 14 14 15 15 16 16 17 17 18 24 19 18 20 23 21 19 22 22 23
REMARK INDEX MAP 20 24 21 25
ROOT
ATOM      1  C   UNL     1     134.826 124.304 123.044  1.00  0.00    +0.028 C 
ATOM      2  C   UNL     1     136.125 124.980 122.554  1.00  0.00    +0.024 C 
ATOM      3  C   UNL     1     136.069 126.500 122.669  1.00  0.00    +0.081 C 
ATOM      4  N   UNL     1     134.957 127.075 121.917  1.00  0.00    -0.316 NA
ATOM      5  C   UNL     1     133.723 126.287 121.958  1.00  0.00    +0.088 C 
ATOM      6  C   UNL     1     133.647 125.309 123.139  1.00  0.00    +0.048 C 
ATOM      7  H   UNL     1     134.782 128.028 122.239  1.00  0.00    +0.122 HD
ENDROOT
BRANCH   1   8
ATOM      8  C   UNL     1     135.029 123.553 124.356  1.00  0.00    -0.044 A 
ATOM      9  C   UNL     1     135.389 122.116 126.728  1.00  0.00    +0.123 A 
ATOM     10  C   UNL     1     135.025 123.455 126.786  1.00  0.00    +0.039 A 
ATOM     11  C   UNL     1     135.574 121.479 125.509  1.00  0.00    +0.039 A 
ATOM     12  C   UNL     1     134.844 124.173 125.602  1.00  0.00    +0.007 A 
ATOM     13  C   UNL     1     135.394 122.195 124.324  1.00  0.00    +0.007 A 
ATOM     14  F   UNL     1     135.560 121.429 127.866  1.00  0.00    -0.207 F 
ENDBRANCH   1   8
BRANCH   6  15
ATOM     15  C   UNL     1     132.279 124.603 123.179  1.00  0.00    +0.235 C 
BRANCH  15  16
ATOM     16  O   UNL     1     131.232 125.564 123.042  1.00  0.00    -0.493 OA
BRANCH  16  17
ATOM     17  C   UNL     1     130.851 126.240 124.170  1.00  0.00    +0.123 A 
ATOM     18  C   UNL     1     130.401 127.555 123.932  1.00  0.00    +0.050 A 
ATOM     19  C   UNL     1     130.880 125.738 125.473  1.00  0.00    +0.097 A 
ATOM     20  C   UNL     1     129.976 128.375 124.982  1.00  0.00    +0.054 A 
ATOM     21  C   UNL     1     130.454 126.569 126.491  1.00  0.00    +0.169 A 
ATOM     22  C   UNL     1     130.015 127.850 126.254  1.00  0.00    +0.166 A 
ATOM     23  O   UNL     1     130.415 126.245 127.812  1.00  0.00    -0.453 OA
ATOM     24  O   UNL     1     129.644 128.491 127.393  1.00  0.00    -0.454 OA
ATOM     25  C   UNL     1     129.900 127.469 128.377  1.00  0.00    +0.468 C 
ENDBRANCH  16  17
ENDBRANCH  15  16
ENDBRANCH   6  15
TORSDOF 4
ENDMDL
MODEL 8
REMARK VINA RESULT:    -9.350      3.186      5.603
REMARK INTER + INTRA:         -12.418
REMARK INTER:                 -10.812
REMARK INTRA:                  -1.606
REMARK UNBOUND:                -0.881
REMARK SMILES Fc1ccc([C@@H]2CCNC[C@H]2COc2ccc3c(c2)OCO3)cc1
REMARK SMILES IDX 6 1 7 2 8 3 9 4 10 5 11 6 5 8 2 9 3 10 24 11 4 12 23 13 1 14
REMARK SMILES IDX 12 15 13 16 14 17 15 18 19 19 16 20 18 21 17 22 20 23 22 24
REMARK SMILES IDX 21 25
REMARK H PARENT 9 7
REMARK INDEX MAP 8 1 9 2 10 3 11 4 12 5 13 6 34 7 5 8 2 9 3 10 7 11 4 12 6 13
REMARK INDEX MAP 1 14 14 15 15 16 16 17 17 18 24 19 18 20 23 21 19 22 22 23
REMARK INDEX MAP 20 24 21 25
ROOT
ATOM      1  C   UNL     1     134.175 125.968 122.234  1.00  0.00    +0.028 C 
ATOM      2  C   UNL     1     133.705 125.666 120.794  1.00  0.00    +0.024 C 
ATOM      3  C   UNL     1     134.597 124.647 120.092  1.00  0.00    +0.081 C 
ATOM      4  N   UNL     1     135.990 125.079 120.024  1.00  0.00    -0.316 NA
ATOM      5  C   UNL     1     136.469 125.780 121.217  1.00  0.00    +0.088 C 
ATOM      6  C   UNL     1     135.636 125.504 122.478  1.00  0.00    +0.048 C 
ATOM      7  H   UNL     1     136.588 124.279 119.816  1.00  0.00    +0.122 HD
ENDROOT
BRANCH   1   8
ATOM      8  C   UNL     1     133.224 125.397 123.281  1.00  0.00    -0.044 A 
ATOM      9  C   UNL     1     131.456 124.306 125.154  1.00  0.00    +0.123 A 
ATOM     10  C   UNL     1     131.908 125.610 125.316  1.00  0.00    +0.039 A 
ATOM     11  C   UNL     1     131.867 123.538 124.074  1.00  0.00    +0.039 A 
ATOM     12  C   UNL     1     132.790 126.156 124.380  1.00  0.00    +0.007 A 
ATOM     13  C   UNL     1     132.749 124.082 123.138  1.00  0.00    +0.007 A 
ATOM     14  F   UNL     1     130.609 123.786 126.052  1.00  0.00    -0.207 F 
ENDBRANCH   1   8
BRANCH   6  15
ATOM     15  C   UNL     1     136.266 126.179 123.710  1.00  0.00    +0.235 C 
BRANCH  15  16
ATOM     16  O   UNL     1     136.892 125.198 124.536  1.00  0.00    -0.493 OA
BRANCH  16  17
ATOM     17  C   UNL     1     136.152 124.095 124.868  1.00  0.00    +0.123 A 
ATOM     18  C   UNL     1     136.315 123.004 123.991  1.00  0.00    +0.050 A 
ATOM     19  C   UNL     1     135.290 123.988 125.962  1.00  0.00    +0.097 A 
ATOM     20  C   UNL     1     135.628 121.803 124.194  1.00  0.00    +0.054 A 
ATOM     21  C   UNL     1     134.623 122.791 126.140  1.00  0.00    +0.169 A 
ATOM     22  C   UNL     1     134.787 121.729 125.282  1.00  0.00    +0.166 A 
ATOM     23  O   UNL     1     133.751 122.514 127.145  1.00  0.00    -0.453 OA
ATOM     24  O   UNL     1     134.040 120.652 125.640  1.00  0.00    -0.454 OA
ATOM     25  C   UNL     1     133.386 121.155 126.822  1.00  0.00    +0.468 C 
ENDBRANCH  16  17
ENDBRANCH  15  16
ENDBRANCH   6  15
TORSDOF 4
ENDMDL
MODEL 9
REMARK VINA RESULT:    -9.207      3.971      6.825
REMARK INTER + INTRA:         -12.241
REMARK INTER:                 -11.388
REMARK INTRA:                  -0.854
REMARK UNBOUND:                -0.881
REMARK SMILES Fc1ccc([C@@H]2CCNC[C@H]2COc2ccc3c(c2)OCO3)cc1
REMARK SMILES IDX 6 1 7 2 8 3 9 4 10 5 11 6 5 8 2 9 3 10 24 11 4 12 23 13 1 14
REMARK SMILES IDX 12 15 13 16 14 17 15 18 19 19 16 20 18 21 17 22 20 23 22 24
REMARK SMILES IDX 21 25
REMARK H PARENT 9 7
REMARK INDEX MAP 8 1 9 2 10 3 11 4 12 5 13 6 34 7 5 8 2 9 3 10 7 11 4 12 6 13
REMARK INDEX MAP 1 14 14 15 15 16 16 17 17 18 24 19 18 20 23 21 19 22 22 23
REMARK INDEX MAP 20 24 21 25
ROOT
ATOM      1  C   UNL     1     134.605 123.249 122.412  1.00  0.00    +0.028 C 
ATOM      2  C   UNL     1     135.602 123.244 121.232  1.00  0.00    +0.024 C 
ATOM      3  C   UNL     1     136.116 124.641 120.900  1.00  0.00    +0.081 C 
ATOM      4  N   UNL     1     135.037 125.568 120.567  1.00  0.00    -0.316 NA
ATOM      5  C   UNL     1     133.823 125.401 121.369  1.00  0.00    +0.088 C 
ATOM      6  C   UNL     1     134.052 124.670 122.700  1.00  0.00    +0.048 C 
ATOM      7  H   UNL     1     135.378 126.528 120.631  1.00  0.00    +0.122 HD
ENDROOT
BRANCH   1   8
ATOM      8  C   UNL     1     135.196 122.612 123.666  1.00  0.00    -0.044 A 
ATOM      9  C   UNL     1     136.341 121.472 125.948  1.00  0.00    +0.123 A 
ATOM     10  C   UNL     1     135.179 120.926 125.419  1.00  0.00    +0.039 A 
ATOM     11  C   UNL     1     136.944 122.574 125.360  1.00  0.00    +0.039 A 
ATOM     12  C   UNL     1     134.608 121.494 124.278  1.00  0.00    +0.007 A 
ATOM     13  C   UNL     1     136.374 123.144 124.220  1.00  0.00    +0.007 A 
ATOM     14  F   UNL     1     136.889 120.923 127.041  1.00  0.00    -0.207 F 
ENDBRANCH   1   8
BRANCH   6  15
ATOM     15  C   UNL     1     132.759 124.635 123.536  1.00  0.00    +0.235 C 
BRANCH  15  16
ATOM     16  O   UNL     1     133.021 125.107 124.857  1.00  0.00    -0.493 OA
BRANCH  16  17
ATOM     17  C   UNL     1     131.963 125.161 125.724  1.00  0.00    +0.123 A 
ATOM     18  C   UNL     1     131.726 126.439 126.270  1.00  0.00    +0.050 A 
ATOM     19  C   UNL     1     131.146 124.086 126.084  1.00  0.00    +0.097 A 
ATOM     20  C   UNL     1     130.680 126.658 127.171  1.00  0.00    +0.054 A 
ATOM     21  C   UNL     1     130.119 124.331 126.976  1.00  0.00    +0.169 A 
ATOM     22  C   UNL     1     129.892 125.579 127.505  1.00  0.00    +0.166 A 
ATOM     23  O   UNL     1     129.232 123.406 127.433  1.00  0.00    -0.453 OA
ATOM     24  O   UNL     1     128.835 125.598 128.359  1.00  0.00    -0.454 OA
ATOM     25  C   UNL     1     128.421 124.217 128.309  1.00  0.00    +0.468 C 
ENDBRANCH  16  17
ENDBRANCH  15  16
ENDBRANCH   6  15
TORSDOF 4
ENDMDL
MODEL 10
REMARK VINA RESULT:    -9.159      4.445      7.738
REMARK INTER + INTRA:         -12.182
REMARK INTER:                 -11.121
REMARK INTRA:                  -1.060
REMARK UNBOUND:                -0.881
REMARK SMILES Fc1ccc([C@@H]2CCNC[C@H]2COc2ccc3c(c2)OCO3)cc1
REMARK SMILES IDX 6 1 7 2 8 3 9 4 10 5 11 6 5 8 2 9 3 10 24 11 4 12 23 13 1 14
REMARK SMILES IDX 12 15 13 16 14 17 15 18 19 19 16 20 18 21 17 22 20 23 22 24
REMARK SMILES IDX 21 25
REMARK H PARENT 9 7
REMARK INDEX MAP 8 1 9 2 10 3 11 4 12 5 13 6 34 7 5 8 2 9 3 10 7 11 4 12 6 13
REMARK INDEX MAP 1 14 14 15 15 16 16 17 17 18 24 19 18 20 23 21 19 22 22 23
REMARK INDEX MAP 20 24 21 25
ROOT
ATOM      1  C   UNL     1     134.604 123.747 124.693  1.00  0.00    +0.028 C 
ATOM      2  C   UNL     1     136.061 123.547 125.166  1.00  0.00    +0.024 C 
ATOM      3  C   UNL     1     136.419 122.075 125.342  1.00  0.00    +0.081 C 
ATOM      4  N   UNL     1     135.545 121.400 126.298  1.00  0.00    -0.316 NA
ATOM      5  C   UNL     1     134.142 121.815 126.238  1.00  0.00    +0.088 C 
ATOM      6  C   UNL     1     133.744 122.473 124.909  1.00  0.00    +0.048 C 
ATOM      7  H   UNL     1     135.623 120.389 126.179  1.00  0.00    +0.122 HD
ENDROOT
BRANCH   1   8
ATOM      8  C   UNL     1     134.530 124.237 123.251  1.00  0.00    -0.044 A 
ATOM      9  C   UNL     1     134.338 125.172 120.622  1.00  0.00    +0.123 A 
ATOM     10  C   UNL     1     134.978 123.966 120.875  1.00  0.00    +0.039 A 
ATOM     11  C   UNL     1     133.790 125.920 121.655  1.00  0.00    +0.039 A 
ATOM     12  C   UNL     1     135.072 123.497 122.188  1.00  0.00    +0.007 A 
ATOM     13  C   UNL     1     133.885 125.453 122.968  1.00  0.00    +0.007 A 
ATOM     14  F   UNL     1     134.247 125.618 119.362  1.00  0.00    -0.207 F 
ENDBRANCH   1   8
BRANCH   6  15
ATOM     15  C   UNL     1     132.234 122.776 124.878  1.00  0.00    +0.235 C 
BRANCH  15  16
ATOM     16  O   UNL     1     131.717 122.805 126.208  1.00  0.00    -0.493 OA
BRANCH  16  17
ATOM     17  C   UNL     1     131.149 123.976 126.634  1.00  0.00    +0.123 A 
ATOM     18  C   UNL     1     129.905 123.815 127.276  1.00  0.00    +0.050 A 
ATOM     19  C   UNL     1     131.695 125.252 126.480  1.00  0.00    +0.097 A 
ATOM     20  C   UNL     1     129.198 124.916 127.769  1.00  0.00    +0.054 A 
ATOM     21  C   UNL     1     130.977 126.323 126.976  1.00  0.00    +0.169 A 
ATOM     22  C   UNL     1     129.763 126.161 127.603  1.00  0.00    +0.166 A 
ATOM     23  O   UNL     1     131.356 127.627 126.914  1.00  0.00    -0.453 OA
ATOM     24  O   UNL     1     129.229 127.341 128.014  1.00  0.00    -0.454 OA
ATOM     25  C   UNL     1     130.243 128.267 127.574  1.00  0.00    +0.468 C 
ENDBRANCH  16  17
ENDBRANCH  15  16
ENDBRANCH   6  15
TORSDOF 4
ENDMDL
MODEL 11
REMARK VINA RESULT:    -9.092      4.479      7.301
REMARK INTER + INTRA:         -12.099
REMARK INTER:                 -11.423
REMARK INTRA:                  -0.675
REMARK UNBOUND:                -0.881
REMARK SMILES Fc1ccc([C@@H]2CCNC[C@H]2COc2ccc3c(c2)OCO3)cc1
REMARK SMILES IDX 6 1 7 2 8 3 9 4 10 5 11 6 5 8 2 9 3 10 24 11 4 12 23 13 1 14
REMARK SMILES IDX 12 15 13 16 14 17 15 18 19 19 16 20 18 21 17 22 20 23 22 24
REMARK SMILES IDX 21 25
REMARK H PARENT 9 7
REMARK INDEX MAP 8 1 9 2 10 3 11 4 12 5 13 6 34 7 5 8 2 9 3 10 7 11 4 12 6 13
REMARK INDEX MAP 1 14 14 15 15 16 16 17 17 18 24 19 18 20 23 21 19 22 22 23
REMARK INDEX MAP 20 24 21 25
ROOT
ATOM      1  C   UNL     1     134.749 125.993 122.243  1.00  0.00    +0.028 C 
ATOM      2  C   UNL     1     136.125 126.538 122.685  1.00  0.00    +0.024 C 
ATOM      3  C   UNL     1     136.613 125.901 123.982  1.00  0.00    +0.081 C 
ATOM      4  N   UNL     1     135.680 126.101 125.087  1.00  0.00    -0.316 NA
ATOM      5  C   UNL     1     134.267 126.019 124.712  1.00  0.00    +0.088 C 
ATOM      6  C   UNL     1     134.014 125.264 123.399  1.00  0.00    +0.048 C 
ATOM      7  H   UNL     1     135.889 125.441 125.836  1.00  0.00    +0.122 HD
ENDROOT
BRANCH   1   8
ATOM      8  C   UNL     1     134.850 125.114 121.000  1.00  0.00    -0.044 A 
ATOM      9  C   UNL     1     135.091 123.471 118.750  1.00  0.00    +0.123 A 
ATOM     10  C   UNL     1     134.468 124.706 118.633  1.00  0.00    +0.039 A 
ATOM     11  C   UNL     1     135.599 123.041 119.968  1.00  0.00    +0.039 A 
ATOM     12  C   UNL     1     134.349 125.529 119.756  1.00  0.00    +0.007 A 
ATOM     13  C   UNL     1     135.480 123.860 121.092  1.00  0.00    +0.007 A 
ATOM     14  F   UNL     1     135.206 122.685 117.671  1.00  0.00    -0.207 F 
ENDBRANCH   1   8
BRANCH   6  15
ATOM     15  C   UNL     1     132.504 125.119 123.132  1.00  0.00    +0.235 C 
BRANCH  15  16
ATOM     16  O   UNL     1     131.799 126.212 123.720  1.00  0.00    -0.493 OA
BRANCH  16  17
ATOM     17  C   UNL     1     130.832 125.910 124.640  1.00  0.00    +0.123 A 
ATOM     18  C   UNL     1     129.771 126.838 124.690  1.00  0.00    +0.050 A 
ATOM     19  C   UNL     1     130.829 124.801 125.490  1.00  0.00    +0.097 A 
ATOM     20  C   UNL     1     128.704 126.670 125.579  1.00  0.00    +0.054 A 
ATOM     21  C   UNL     1     129.763 124.659 126.357  1.00  0.00    +0.169 A 
ATOM     22  C   UNL     1     128.731 125.566 126.401  1.00  0.00    +0.166 A 
ATOM     23  O   UNL     1     129.599 123.645 127.249  1.00  0.00    -0.453 OA
ATOM     24  O   UNL     1     127.789 125.236 127.323  1.00  0.00    -0.454 OA
ATOM     25  C   UNL     1     128.345 124.018 127.857  1.00  0.00    +0.468 C 
ENDBRANCH  16  17
ENDBRANCH  15  16
ENDBRANCH   6  15
TORSDOF 4
ENDMDL
MODEL 12
REMARK VINA RESULT:    -9.086      4.086      7.298
REMARK INTER + INTRA:         -12.092
REMARK INTER:                 -11.188
REMARK INTRA:                  -0.904
REMARK UNBOUND:                -0.881
REMARK SMILES Fc1ccc([C@@H]2CCNC[C@H]2COc2ccc3c(c2)OCO3)cc1
REMARK SMILES IDX 6 1 7 2 8 3 9 4 10 5 11 6 5 8 2 9 3 10 24 11 4 12 23 13 1 14
REMARK SMILES IDX 12 15 13 16 14 17 15 18 19 19 16 20 18 21 17 22 20 23 22 24
REMARK SMILES IDX 21 25
REMARK H PARENT 9 7
REMARK INDEX MAP 8 1 9 2 10 3 11 4 12 5 13 6 34 7 5 8 2 9 3 10 7 11 4 12 6 13
REMARK INDEX MAP 1 14 14 15 15 16 16 17 17 18 24 19 18 20 23 21 19 22 22 23
REMARK INDEX MAP 20 24 21 25
ROOT
ATOM      1  C   UNL     1     134.757 125.291 123.229  1.00  0.00    +0.028 C 
ATOM      2  C   UNL     1     135.856 126.302 123.626  1.00  0.00    +0.024 C 
ATOM      3  C   UNL     1     136.879 125.702 124.585  1.00  0.00    +0.081 C 
ATOM      4  N   UNL     1     136.267 125.205 125.814  1.00  0.00    -0.316 NA
ATOM      5  C   UNL     1     134.965 124.560 125.628  1.00  0.00    +0.088 C 
ATOM      6  C   UNL     1     134.710 124.076 124.194  1.00  0.00    +0.048 C 
ATOM      7  H   UNL     1     136.913 124.573 126.288  1.00  0.00    +0.122 HD
ENDROOT
BRANCH   1   8
ATOM      8  C   UNL     1     134.881 124.849 121.775  1.00  0.00    -0.044 A 
ATOM      9  C   UNL     1     135.047 124.068 119.095  1.00  0.00    +0.123 A 
ATOM     10  C   UNL     1     135.757 123.364 120.059  1.00  0.00    +0.039 A 
ATOM     11  C   UNL     1     134.254 125.152 119.442  1.00  0.00    +0.039 A 
ATOM     12  C   UNL     1     135.673 123.753 121.398  1.00  0.00    +0.007 A 
ATOM     13  C   UNL     1     134.170 125.543 120.780  1.00  0.00    +0.007 A 
ATOM     14  F   UNL     1     135.128 123.691 117.812  1.00  0.00    -0.207 F 
ENDBRANCH   1   8
BRANCH   6  15
ATOM     15  C   UNL     1     133.377 123.310 124.103  1.00  0.00    +0.235 C 
BRANCH  15  16
ATOM     16  O   UNL     1     132.309 124.221 123.844  1.00  0.00    -0.493 OA
BRANCH  16  17
ATOM     17  C   UNL     1     131.613 124.693 124.924  1.00  0.00    +0.123 A 
ATOM     18  C   UNL     1     131.152 123.688 125.799  1.00  0.00    +0.050 A 
ATOM     19  C   UNL     1     131.345 126.036 125.200  1.00  0.00    +0.097 A 
ATOM     20  C   UNL     1     130.425 124.009 126.950  1.00  0.00    +0.054 A 
ATOM     21  C   UNL     1     130.625 126.325 126.344  1.00  0.00    +0.169 A 
ATOM     22  C   UNL     1     130.178 125.341 127.194  1.00  0.00    +0.166 A 
ATOM     23  O   UNL     1     130.276 127.570 126.764  1.00  0.00    -0.453 OA
ATOM     24  O   UNL     1     129.494 125.843 128.255  1.00  0.00    -0.454 OA
ATOM     25  C   UNL     1     129.559 127.257 127.978  1.00  0.00    +0.468 C 
ENDBRANCH  16  17
ENDBRANCH  15  16
ENDBRANCH   6  15
TORSDOF 4
ENDMDL
MODEL 13
REMARK VINA RESULT:    -9.035      4.753      7.922
REMARK INTER + INTRA:         -12.029
REMARK INTER:                 -11.398
REMARK INTRA:                  -0.632
REMARK UNBOUND:                -0.881
REMARK SMILES Fc1ccc([C@@H]2CCNC[C@H]2COc2ccc3c(c2)OCO3)cc1
REMARK SMILES IDX 6 1 7 2 8 3 9 4 10 5 11 6 5 8 2 9 3 10 24 11 4 12 23 13 1 14
REMARK SMILES IDX 12 15 13 16 14 17 15 18 19 19 16 20 18 21 17 22 20 23 22 24
REMARK SMILES IDX 21 25
REMARK H PARENT 9 7
REMARK INDEX MAP 8 1 9 2 10 3 11 4 12 5 13 6 34 7 5 8 2 9 3 10 7 11 4 12 6 13
REMARK INDEX MAP 1 14 14 15 15 16 16 17 17 18 24 19 18 20 23 21 19 22 22 23
REMARK INDEX MAP 20 24 21 25
ROOT
ATOM      1  C   UNL     1     134.757 123.901 123.879  1.00  0.00    +0.028 C 
ATOM      2  C   UNL     1     136.027 123.146 124.329  1.00  0.00    +0.024 C 
ATOM      3  C   UNL     1     135.735 121.702 124.726  1.00  0.00    +0.081 C 
ATOM      4  N   UNL     1     134.756 121.609 125.806  1.00  0.00    -0.316 NA
ATOM      5  C   UNL     1     133.668 122.585 125.727  1.00  0.00    +0.088 C 
ATOM      6  C   UNL     1     133.460 123.174 124.324  1.00  0.00    +0.048 C 
ATOM      7  H   UNL     1     134.381 120.660 125.848  1.00  0.00    +0.122 HD
ENDROOT
BRANCH   1   8
ATOM      8  C   UNL     1     134.756 124.183 122.380  1.00  0.00    -0.044 A 
ATOM      9  C   UNL     1     134.699 124.741 119.641  1.00  0.00    +0.123 A 
ATOM     10  C   UNL     1     135.304 123.574 120.090  1.00  0.00    +0.039 A 
ATOM     11  C   UNL     1     134.120 125.633 120.531  1.00  0.00    +0.039 A 
ATOM     12  C   UNL     1     135.331 123.294 121.458  1.00  0.00    +0.007 A 
ATOM     13  C   UNL     1     134.147 125.356 121.899  1.00  0.00    +0.007 A 
ATOM     14  F   UNL     1     134.673 125.005 118.327  1.00  0.00    -0.207 F 
ENDBRANCH   1   8
BRANCH   6  15
ATOM     15  C   UNL     1     132.230 124.101 124.295  1.00  0.00    +0.235 C 
BRANCH  15  16
ATOM     16  O   UNL     1     132.463 125.243 125.120  1.00  0.00    -0.493 OA
BRANCH  16  17
ATOM     17  C   UNL     1     131.519 125.533 126.068  1.00  0.00    +0.123 A 
ATOM     18  C   UNL     1     131.596 126.845 126.578  1.00  0.00    +0.050 A 
ATOM     19  C   UNL     1     130.536 124.658 126.537  1.00  0.00    +0.097 A 
ATOM     20  C   UNL     1     130.700 127.296 127.553  1.00  0.00    +0.054 A 
ATOM     21  C   UNL     1     129.664 125.129 127.500  1.00  0.00    +0.169 A 
ATOM     22  C   UNL     1     129.743 126.410 127.994  1.00  0.00    +0.166 A 
ATOM     23  O   UNL     1     128.652 124.418 128.066  1.00  0.00    -0.453 OA
ATOM     24  O   UNL     1     128.791 126.665 128.930  1.00  0.00    -0.454 OA
ATOM     25  C   UNL     1     128.103 125.399 128.971  1.00  0.00    +0.468 C 
ENDBRANCH  16  17
ENDBRANCH  15  16
ENDBRANCH   6  15
TORSDOF 4
ENDMDL
MODEL 14
REMARK VINA RESULT:    -8.957      2.739      3.850
REMARK INTER + INTRA:         -11.933
REMARK INTER:                 -10.840
REMARK INTRA:                  -1.093
REMARK UNBOUND:                -0.881
REMARK SMILES Fc1ccc([C@@H]2CCNC[C@H]2COc2ccc3c(c2)OCO3)cc1
REMARK SMILES IDX 6 1 7 2 8 3 9 4 10 5 11 6 5 8 2 9 3 10 24 11 4 12 23 13 1 14
REMARK SMILES IDX 12 15 13 16 14 17 15 18 19 19 16 20 18 21 17 22 20 23 22 24
REMARK SMILES IDX 21 25
REMARK H PARENT 9 7
REMARK INDEX MAP 8 1 9 2 10 3 11 4 12 5 13 6 34 7 5 8 2 9 3 10 7 11 4 12 6 13
REMARK INDEX MAP 1 14 14 15 15 16 16 17 17 18 24 19 18 20 23 21 19 22 22 23
REMARK INDEX MAP 20 24 21 25
ROOT
ATOM      1  C   UNL     1     133.864 123.252 124.806  1.00  0.00    +0.028 C 
ATOM      2  C   UNL     1     133.628 121.866 125.446  1.00  0.00    +0.024 C 
ATOM      3  C   UNL     1     134.563 121.601 126.622  1.00  0.00    +0.081 C 
ATOM      4  N   UNL     1     135.971 121.683 126.243  1.00  0.00    -0.316 NA
ATOM      5  C   UNL     1     136.282 122.739 125.278  1.00  0.00    +0.088 C 
ATOM      6  C   UNL     1     135.231 123.858 125.221  1.00  0.00    +0.048 C 
ATOM      7  H   UNL     1     136.546 121.784 127.080  1.00  0.00    +0.122 HD
ENDROOT
BRANCH   1   8
ATOM      8  C   UNL     1     132.716 124.217 125.085  1.00  0.00    -0.044 A 
ATOM      9  C   UNL     1     130.633 126.026 125.544  1.00  0.00    +0.123 A 
ATOM     10  C   UNL     1     131.046 125.182 126.567  1.00  0.00    +0.039 A 
ATOM     11  C   UNL     1     131.241 125.986 124.297  1.00  0.00    +0.039 A 
ATOM     12  C   UNL     1     132.087 124.280 126.339  1.00  0.00    +0.007 A 
ATOM     13  C   UNL     1     132.281 125.083 124.067  1.00  0.00    +0.007 A 
ATOM     14  F   UNL     1     129.636 126.892 125.766  1.00  0.00    -0.207 F 
ENDBRANCH   1   8
BRANCH   6  15
ATOM     15  C   UNL     1     135.682 124.985 124.272  1.00  0.00    +0.235 C 
BRANCH  15  16
ATOM     16  O   UNL     1     136.457 124.440 123.204  1.00  0.00    -0.493 OA
BRANCH  16  17
ATOM     17  C   UNL     1     135.904 124.470 121.952  1.00  0.00    +0.123 A 
ATOM     18  C   UNL     1     135.203 125.657 121.657  1.00  0.00    +0.050 A 
ATOM     19  C   UNL     1     135.985 123.453 120.998  1.00  0.00    +0.097 A 
ATOM     20  C   UNL     1     134.582 125.842 120.418  1.00  0.00    +0.054 A 
ATOM     21  C   UNL     1     135.363 123.661 119.782  1.00  0.00    +0.169 A 
ATOM     22  C   UNL     1     134.681 124.821 119.500  1.00  0.00    +0.166 A 
ATOM     23  O   UNL     1     135.341 122.783 118.744  1.00  0.00    -0.453 OA
ATOM     24  O   UNL     1     134.147 124.818 118.250  1.00  0.00    -0.454 OA
ATOM     25  C   UNL     1     134.569 123.524 117.776  1.00  0.00    +0.468 C 
ENDBRANCH  16  17
ENDBRANCH  15  16
ENDBRANCH   6  15
TORSDOF 4
ENDMDL
MODEL 15
REMARK VINA RESULT:    -8.810      5.602      7.585
REMARK INTER + INTRA:         -11.752
REMARK INTER:                 -10.828
REMARK INTRA:                  -0.924
REMARK UNBOUND:                -0.881
REMARK SMILES Fc1ccc([C@@H]2CCNC[C@H]2COc2ccc3c(c2)OCO3)cc1
REMARK SMILES IDX 6 1 7 2 8 3 9 4 10 5 11 6 5 8 2 9 3 10 24 11 4 12 23 13 1 14
REMARK SMILES IDX 12 15 13 16 14 17 15 18 19 19 16 20 18 21 17 22 20 23 22 24
REMARK SMILES IDX 21 25
REMARK H PARENT 9 7
REMARK INDEX MAP 8 1 9 2 10 3 11 4 12 5 13 6 34 7 5 8 2 9 3 10 7 11 4 12 6 13
REMARK INDEX MAP 1 14 14 15 15 16 16 17 17 18 24 19 18 20 23 21 19 22 22 23
REMARK INDEX MAP 20 24 21 25
ROOT
ATOM      1  C   UNL     1     133.161 124.595 125.170  1.00  0.00    +0.028 C 
ATOM      2  C   UNL     1     133.594 123.134 125.421  1.00  0.00    +0.024 C 
ATOM      3  C   UNL     1     132.404 122.188 125.552  1.00  0.00    +0.081 C 
ATOM      4  N   UNL     1     131.501 122.576 126.632  1.00  0.00    -0.316 NA
ATOM      5  C   UNL     1     131.314 124.021 126.779  1.00  0.00    +0.088 C 
ATOM      6  C   UNL     1     131.667 124.826 125.520  1.00  0.00    +0.048 C 
ATOM      7  H   UNL     1     130.601 122.111 126.510  1.00  0.00    +0.122 HD
ENDROOT
BRANCH   1   8
ATOM      8  C   UNL     1     133.483 125.054 123.751  1.00  0.00    -0.044 A 
ATOM      9  C   UNL     1     134.106 125.950 121.177  1.00  0.00    +0.123 A 
ATOM     10  C   UNL     1     133.000 125.132 121.369  1.00  0.00    +0.039 A 
ATOM     11  C   UNL     1     134.905 126.332 122.245  1.00  0.00    +0.039 A 
ATOM     12  C   UNL     1     132.687 124.685 122.654  1.00  0.00    +0.007 A 
ATOM     13  C   UNL     1     134.594 125.886 123.531  1.00  0.00    +0.007 A 
ATOM     14  F   UNL     1     134.402 126.379 119.942  1.00  0.00    -0.207 F 
ENDBRANCH   1   8
BRANCH   6  15
ATOM     15  C   UNL     1     131.337 126.318 125.713  1.00  0.00    +0.235 C 
BRANCH  15  16
ATOM     16  O   UNL     1     129.922 126.508 125.708  1.00  0.00    -0.493 OA
BRANCH  16  17
ATOM     17  C   UNL     1     129.408 127.359 124.768  1.00  0.00    +0.123 A 
ATOM     18  C   UNL     1     130.111 128.574 124.642  1.00  0.00    +0.050 A 
ATOM     19  C   UNL     1     128.290 127.114 123.968  1.00  0.00    +0.097 A 
ATOM     20  C   UNL     1     129.711 129.550 123.723  1.00  0.00    +0.054 A 
ATOM     21  C   UNL     1     127.916 128.094 123.068  1.00  0.00    +0.169 A 
ATOM     22  C   UNL     1     128.606 129.277 122.948  1.00  0.00    +0.166 A 
ATOM     23  O   UNL     1     126.859 128.023 122.215  1.00  0.00    -0.453 OA
ATOM     24  O   UNL     1     128.071 130.097 122.006  1.00  0.00    -0.454 OA
ATOM     25  C   UNL     1     126.964 129.297 121.544  1.00  0.00    +0.468 C 
ENDBRANCH  16  17
ENDBRANCH  15  16
ENDBRANCH   6  15
TORSDOF 4
ENDMDL
MODEL 16
REMARK VINA RESULT:    -8.709      4.042      6.476
REMARK INTER + INTRA:         -11.626
REMARK INTER:                 -10.888
REMARK INTRA:                  -0.738
REMARK UNBOUND:                -0.881
REMARK SMILES Fc1ccc([C@@H]2CCNC[C@H]2COc2ccc3c(c2)OCO3)cc1
REMARK SMILES IDX 6 1 7 2 8 3 9 4 10 5 11 6 5 8 2 9 3 10 24 11 4 12 23 13 1 14
REMARK SMILES IDX 12 15 13 16 14 17 15 18 19 19 16 20 18 21 17 22 20 23 22 24
REMARK SMILES IDX 21 25
REMARK H PARENT 9 7
REMARK INDEX MAP 8 1 9 2 10 3 11 4 12 5 13 6 34 7 5 8 2 9 3 10 7 11 4 12 6 13
REMARK INDEX MAP 1 14 14 15 15 16 16 17 17 18 24 19 18 20 23 21 19 22 22 23
REMARK INDEX MAP 20 24 21 25
ROOT
ATOM      1  C   UNL     1     134.602 122.943 122.737  1.00  0.00    +0.028 C 
ATOM      2  C   UNL     1     135.612 123.109 121.580  1.00  0.00    +0.024 C 
ATOM      3  C   UNL     1     135.943 124.572 121.302  1.00  0.00    +0.081 C 
ATOM      4  N   UNL     1     134.757 125.359 120.974  1.00  0.00    -0.316 NA
ATOM      5  C   UNL     1     133.562 125.007 121.743  1.00  0.00    +0.088 C 
ATOM      6  C   UNL     1     133.861 124.269 123.056  1.00  0.00    +0.048 C 
ATOM      7  H   UNL     1     134.966 126.353 121.074  1.00  0.00    +0.122 HD
ENDROOT
BRANCH   1   8
ATOM      8  C   UNL     1     135.250 122.349 123.984  1.00  0.00    -0.044 A 
ATOM      9  C   UNL     1     136.498 121.280 126.247  1.00  0.00    +0.123 A 
ATOM     10  C   UNL     1     135.266 120.781 125.843  1.00  0.00    +0.039 A 
ATOM     11  C   UNL     1     137.119 122.302 125.542  1.00  0.00    +0.039 A 
ATOM     12  C   UNL     1     134.643 121.313 124.712  1.00  0.00    +0.007 A 
ATOM     13  C   UNL     1     136.497 122.835 124.412  1.00  0.00    +0.007 A 
ATOM     14  F   UNL     1     137.094 120.766 127.331  1.00  0.00    -0.207 F 
ENDBRANCH   1   8
BRANCH   6  15
ATOM     15  C   UNL     1     132.568 124.036 123.860  1.00  0.00    +0.235 C 
BRANCH  15  16
ATOM     16  O   UNL     1     132.607 124.791 125.072  1.00  0.00    -0.493 OA
BRANCH  16  17
ATOM     17  C   UNL     1     131.821 125.909 125.138  1.00  0.00    +0.123 A 
ATOM     18  C   UNL     1     131.721 126.470 126.427  1.00  0.00    +0.050 A 
ATOM     19  C   UNL     1     131.146 126.498 124.066  1.00  0.00    +0.097 A 
ATOM     20  C   UNL     1     130.955 127.617 126.660  1.00  0.00    +0.054 A 
ATOM     21  C   UNL     1     130.396 127.630 124.324  1.00  0.00    +0.169 A 
ATOM     22  C   UNL     1     130.303 128.174 125.583  1.00  0.00    +0.166 A 
ATOM     23  O   UNL     1     129.678 128.329 123.404  1.00  0.00    -0.453 OA
ATOM     24  O   UNL     1     129.517 129.282 125.613  1.00  0.00    -0.454 OA
ATOM     25  C   UNL     1     129.124 129.376 124.229  1.00  0.00    +0.468 C 
ENDBRANCH  16  17
ENDBRANCH  15  16
ENDBRANCH   6  15
TORSDOF 4
ENDMDL
MODEL 17
REMARK VINA RESULT:    -8.696      4.486      7.050
REMARK INTER + INTRA:         -11.610
REMARK INTER:                 -10.895
REMARK INTRA:                  -0.715
REMARK UNBOUND:                -0.881
REMARK SMILES Fc1ccc([C@@H]2CCNC[C@H]2COc2ccc3c(c2)OCO3)cc1
REMARK SMILES IDX 6 1 7 2 8 3 9 4 10 5 11 6 5 8 2 9 3 10 24 11 4 12 23 13 1 14
REMARK SMILES IDX 12 15 13 16 14 17 15 18 19 19 16 20 18 21 17 22 20 23 22 24
REMARK SMILES IDX 21 25
REMARK H PARENT 9 7
REMARK INDEX MAP 8 1 9 2 10 3 11 4 12 5 13 6 34 7 5 8 2 9 3 10 7 11 4 12 6 13
REMARK INDEX MAP 1 14 14 15 15 16 16 17 17 18 24 19 18 20 23 21 19 22 22 23
REMARK INDEX MAP 20 24 21 25
ROOT
ATOM      1  C   UNL     1     135.873 123.578 124.684  1.00  0.00    +0.028 C 
ATOM      2  C   UNL     1     136.622 122.298 125.116  1.00  0.00    +0.024 C 
ATOM      3  C   UNL     1     135.688 121.251 125.716  1.00  0.00    +0.081 C 
ATOM      4  N   UNL     1     134.960 121.754 126.877  1.00  0.00    -0.316 NA
ATOM      5  C   UNL     1     134.529 123.150 126.768  1.00  0.00    +0.088 C 
ATOM      6  C   UNL     1     134.462 123.669 125.324  1.00  0.00    +0.048 C 
ATOM      7  H   UNL     1     134.161 121.149 127.070  1.00  0.00    +0.122 HD
ENDROOT
BRANCH   1   8
ATOM      8  C   UNL     1     135.810 123.722 123.167  1.00  0.00    -0.044 A 
ATOM      9  C   UNL     1     135.702 123.918 120.379  1.00  0.00    +0.123 A 
ATOM     10  C   UNL     1     136.106 125.016 121.128  1.00  0.00    +0.039 A 
ATOM     11  C   UNL     1     135.354 122.724 120.994  1.00  0.00    +0.039 A 
ATOM     12  C   UNL     1     136.161 124.918 122.521  1.00  0.00    +0.007 A 
ATOM     13  C   UNL     1     135.408 122.625 122.385  1.00  0.00    +0.007 A 
ATOM     14  F   UNL     1     135.652 124.015 119.044  1.00  0.00    -0.207 F 
ENDBRANCH   1   8
BRANCH   6  15
ATOM     15  C   UNL     1     133.893 125.100 125.282  1.00  0.00    +0.235 C 
BRANCH  15  16
ATOM     16  O   UNL     1     132.915 125.265 126.310  1.00  0.00    -0.493 OA
BRANCH  16  17
ATOM     17  C   UNL     1     131.745 125.885 125.965  1.00  0.00    +0.123 A 
ATOM     18  C   UNL     1     131.054 126.461 127.051  1.00  0.00    +0.050 A 
ATOM     19  C   UNL     1     131.217 125.978 124.675  1.00  0.00    +0.097 A 
ATOM     20  C   UNL     1     129.841 127.132 126.864  1.00  0.00    +0.054 A 
ATOM     21  C   UNL     1     130.018 126.646 124.518  1.00  0.00    +0.169 A 
ATOM     22  C   UNL     1     129.349 127.207 125.580  1.00  0.00    +0.166 A 
ATOM     23  O   UNL     1     129.365 126.832 123.339  1.00  0.00    -0.453 OA
ATOM     24  O   UNL     1     128.194 127.815 125.204  1.00  0.00    -0.454 OA
ATOM     25  C   UNL     1     128.209 127.574 123.782  1.00  0.00    +0.468 C 
ENDBRANCH  16  17
ENDBRANCH  15  16
ENDBRANCH   6  15
TORSDOF 4
ENDMDL
MODEL 18
REMARK VINA RESULT:    -8.569      1.882      2.384
REMARK INTER + INTRA:         -11.454
REMARK INTER:                 -10.704
REMARK INTRA:                  -0.749
REMARK UNBOUND:                -0.881
REMARK SMILES Fc1ccc([C@@H]2CCNC[C@H]2COc2ccc3c(c2)OCO3)cc1
REMARK SMILES IDX 6 1 7 2 8 3 9 4 10 5 11 6 5 8 2 9 3 10 24 11 4 12 23 13 1 14
REMARK SMILES IDX 12 15 13 16 14 17 15 18 19 19 16 20 18 21 17 22 20 23 22 24
REMARK SMILES IDX 21 25
REMARK H PARENT 9 7
REMARK INDEX MAP 8 1 9 2 10 3 11 4 12 5 13 6 34 7 5 8 2 9 3 10 7 11 4 12 6 13
REMARK INDEX MAP 1 14 14 15 15 16 16 17 17 18 24 19 18 20 23 21 19 22 22 23
REMARK INDEX MAP 20 24 21 25
ROOT
ATOM      1  C   UNL     1     134.529 123.867 124.936  1.00  0.00    +0.028 C 
ATOM      2  C   UNL     1     135.593 123.790 126.053  1.00  0.00    +0.024 C 
ATOM      3  C   UNL     1     136.524 124.998 126.055  1.00  0.00    +0.081 C 
ATOM      4  N   UNL     1     137.224 125.164 124.785  1.00  0.00    -0.316 NA
ATOM      5  C   UNL     1     136.419 124.856 123.601  1.00  0.00    +0.088 C 
ATOM      6  C   UNL     1     134.904 124.909 123.848  1.00  0.00    +0.048 C 
ATOM      7  H   UNL     1     137.603 126.109 124.723  1.00  0.00    +0.122 HD
ENDROOT
BRANCH   1   8
ATOM      8  C   UNL     1     133.130 124.115 125.491  1.00  0.00    -0.044 A 
ATOM      9  C   UNL     1     130.586 124.630 126.532  1.00  0.00    +0.123 A 
ATOM     10  C   UNL     1     130.976 123.319 126.292  1.00  0.00    +0.039 A 
ATOM     11  C   UNL     1     131.442 125.689 126.265  1.00  0.00    +0.039 A 
ATOM     12  C   UNL     1     132.247 123.061 125.773  1.00  0.00    +0.007 A 
ATOM     13  C   UNL     1     132.712 125.433 125.746  1.00  0.00    +0.007 A 
ATOM     14  F   UNL     1     129.367 124.874 127.032  1.00  0.00    -0.207 F 
ENDBRANCH   1   8
BRANCH   6  15
ATOM     15  C   UNL     1     134.127 124.689 122.536  1.00  0.00    +0.235 C 
BRANCH  15  16
ATOM     16  O   UNL     1     134.912 125.126 121.427  1.00  0.00    -0.493 OA
BRANCH  16  17
ATOM     17  C   UNL     1     134.861 124.370 120.288  1.00  0.00    +0.123 A 
ATOM     18  C   UNL     1     134.387 125.062 119.155  1.00  0.00    +0.050 A 
ATOM     19  C   UNL     1     135.227 123.026 120.181  1.00  0.00    +0.097 A 
ATOM     20  C   UNL     1     134.276 124.428 117.913  1.00  0.00    +0.054 A 
ATOM     21  C   UNL     1     135.108 122.424 118.943  1.00  0.00    +0.169 A 
ATOM     22  C   UNL     1     134.646 123.104 117.841  1.00  0.00    +0.166 A 
ATOM     23  O   UNL     1     135.419 121.130 118.660  1.00  0.00    -0.453 OA
ATOM     24  O   UNL     1     134.609 122.325 116.728  1.00  0.00    -0.454 OA
ATOM     25  C   UNL     1     135.100 121.075 117.253  1.00  0.00    +0.468 C 
ENDBRANCH  16  17
ENDBRANCH  15  16
ENDBRANCH   6  15
TORSDOF 4
ENDMDL
MODEL 19
REMARK VINA RESULT:    -8.420      4.252      6.663
REMARK INTER + INTRA:         -11.271
REMARK INTER:                 -10.101
REMARK INTRA:                  -1.170
REMARK UNBOUND:                -0.881
REMARK SMILES Fc1ccc([C@@H]2CCNC[C@H]2COc2ccc3c(c2)OCO3)cc1
REMARK SMILES IDX 6 1 7 2 8 3 9 4 10 5 11 6 5 8 2 9 3 10 24 11 4 12 23 13 1 14
REMARK SMILES IDX 12 15 13 16 14 17 15 18 19 19 16 20 18 21 17 22 20 23 22 24
REMARK SMILES IDX 21 25
REMARK H PARENT 9 7
REMARK INDEX MAP 8 1 9 2 10 3 11 4 12 5 13 6 34 7 5 8 2 9 3 10 7 11 4 12 6 13
REMARK INDEX MAP 1 14 14 15 15 16 16 17 17 18 24 19 18 20 23 21 19 22 22 23
REMARK INDEX MAP 20 24 21 25
ROOT
ATOM      1  C   UNL     1     133.889 124.147 123.323  1.00  0.00    +0.028 C 
ATOM      2  C   UNL     1     134.620 123.515 122.118  1.00  0.00    +0.024 C 
ATOM      3  C   UNL     1     136.073 123.967 122.016  1.00  0.00    +0.081 C 
ATOM      4  N   UNL     1     136.198 125.418 121.901  1.00  0.00    -0.316 NA
ATOM      5  C   UNL     1     135.245 126.177 122.713  1.00  0.00    +0.088 C 
ATOM      6  C   UNL     1     134.649 125.380 123.882  1.00  0.00    +0.048 C 
ATOM      7  H   UNL     1     137.155 125.698 122.119  1.00  0.00    +0.122 HD
ENDROOT
BRANCH   1   8
ATOM      8  C   UNL     1     133.594 123.127 124.417  1.00  0.00    -0.044 A 
ATOM      9  C   UNL     1     132.998 121.293 126.443  1.00  0.00    +0.123 A 
ATOM     10  C   UNL     1     134.297 121.381 125.958  1.00  0.00    +0.039 A 
ATOM     11  C   UNL     1     131.992 122.104 125.938  1.00  0.00    +0.039 A 
ATOM     12  C   UNL     1     134.596 122.298 124.948  1.00  0.00    +0.007 A 
ATOM     13  C   UNL     1     132.288 123.020 124.927  1.00  0.00    +0.007 A 
ATOM     14  F   UNL     1     132.716 120.414 127.414  1.00  0.00    -0.207 F 
ENDBRANCH   1   8
BRANCH   6  15
ATOM     15  C   UNL     1     133.749 126.275 124.754  1.00  0.00    +0.235 C 
BRANCH  15  16
ATOM     16  O   UNL     1     132.498 126.491 124.100  1.00  0.00    -0.493 OA
BRANCH  16  17
ATOM     17  C   UNL     1     131.379 126.525 124.886  1.00  0.00    +0.123 A 
ATOM     18  C   UNL     1     130.201 126.886 124.201  1.00  0.00    +0.050 A 
ATOM     19  C   UNL     1     131.331 126.240 126.253  1.00  0.00    +0.097 A 
ATOM     20  C   UNL     1     128.973 126.965 124.865  1.00  0.00    +0.054 A 
ATOM     21  C   UNL     1     130.105 126.325 126.884  1.00  0.00    +0.169 A 
ATOM     22  C   UNL     1     128.959 126.677 126.211  1.00  0.00    +0.166 A 
ATOM     23  O   UNL     1     129.876 126.083 128.203  1.00  0.00    -0.453 OA
ATOM     24  O   UNL     1     127.867 126.700 127.020  1.00  0.00    -0.454 OA
ATOM     25  C   UNL     1     128.455 126.322 128.281  1.00  0.00    +0.468 C 
ENDBRANCH  16  17
ENDBRANCH  15  16
ENDBRANCH   6  15
TORSDOF 4
ENDMDL
MODEL 20
REMARK VINA RESULT:    -8.351      3.192      4.288
REMARK INTER + INTRA:         -11.185
REMARK INTER:                 -10.587
REMARK INTRA:                  -0.597
REMARK UNBOUND:                -0.881
REMARK SMILES Fc1ccc([C@@H]2CCNC[C@H]2COc2ccc3c(c2)OCO3)cc1
REMARK SMILES IDX 6 1 7 2 8 3 9 4 10 5 11 6 5 8 2 9 3 10 24 11 4 12 23 13 1 14
REMARK SMILES IDX 12 15 13 16 14 17 15 18 19 19 16 20 18 21 17 22 20 23 22 24
REMARK SMILES IDX 21 25
REMARK H PARENT 9 7
REMARK INDEX MAP 8 1 9 2 10 3 11 4 12 5 13 6 34 7 5 8 2 9 3 10 7 11 4 12 6 13
REMARK INDEX MAP 1 14 14 15 15 16 16 17 17 18 24 19 18 20 23 21 19 22 22 23
REMARK INDEX MAP 20 24 21 25
ROOT
ATOM      1  C   UNL     1     132.835 124.323 124.421  1.00  0.00    +0.028 C 
ATOM      2  C   UNL     1     132.531 123.104 125.319  1.00  0.00    +0.024 C 
ATOM      3  C   UNL     1     133.680 122.780 126.269  1.00  0.00    +0.081 C 
ATOM      4  N   UNL     1     134.929 122.511 125.561  1.00  0.00    -0.316 NA
ATOM      5  C   UNL     1     135.158 123.358 124.389  1.00  0.00    +0.088 C 
ATOM      6  C   UNL     1     134.349 124.663 124.395  1.00  0.00    +0.048 C 
ATOM      7  H   UNL     1     135.713 122.581 126.210  1.00  0.00    +0.122 HD
ENDROOT
BRANCH   1   8
ATOM      8  C   UNL     1     131.994 125.539 124.798  1.00  0.00    -0.044 A 
ATOM      9  C   UNL     1     130.446 127.742 125.553  1.00  0.00    +0.123 A 
ATOM     10  C   UNL     1     130.509 127.374 124.215  1.00  0.00    +0.039 A 
ATOM     11  C   UNL     1     131.139 127.030 126.522  1.00  0.00    +0.039 A 
ATOM     12  C   UNL     1     131.280 126.273 123.837  1.00  0.00    +0.007 A 
ATOM     13  C   UNL     1     131.911 125.929 126.146  1.00  0.00    +0.007 A 
ATOM     14  F   UNL     1     129.703 128.798 125.912  1.00  0.00    -0.207 F 
ENDBRANCH   1   8
BRANCH   6  15
ATOM     15  C   UNL     1     134.729 125.549 123.194  1.00  0.00    +0.235 C 
BRANCH  15  16
ATOM     16  O   UNL     1     135.790 124.941 122.457  1.00  0.00    -0.493 OA
BRANCH  16  17
ATOM     17  C   UNL     1     135.488 124.452 121.215  1.00  0.00    +0.123 A 
ATOM     18  C   UNL     1     135.932 123.133 120.990  1.00  0.00    +0.050 A 
ATOM     19  C   UNL     1     134.806 125.139 120.209  1.00  0.00    +0.097 A 
ATOM     20  C   UNL     1     135.701 122.489 119.770  1.00  0.00    +0.054 A 
ATOM     21  C   UNL     1     134.591 124.481 119.013  1.00  0.00    +0.169 A 
ATOM     22  C   UNL     1     135.024 123.194 118.799  1.00  0.00    +0.166 A 
ATOM     23  O   UNL     1     133.947 124.996 117.931  1.00  0.00    -0.453 OA
ATOM     24  O   UNL     1     134.708 122.738 117.559  1.00  0.00    -0.454 OA
ATOM     25  C   UNL     1     134.025 123.885 117.013  1.00  0.00    +0.468 C 
ENDBRANCH  16  17
ENDBRANCH  15  16
ENDBRANCH   6  15
TORSDOF 4
ENDMDL
