MODEL 1
REMARK VINA RESULT:   -10.437      0.000      0.000
REMARK INTER + INTRA:         -13.764
REMARK INTER:                 -12.877
REMARK INTRA:                  -0.887
REMARK UNBOUND:                -0.887
REMARK SMILES Fc1ccc([C@@H]2CCNC[C@H]2COc2ccc3c(c2)OCO3)cc1
REMARK SMILES IDX 6 1 7 2 8 3 9 4 10 5 11 6 5 8 2 9 3 10 24 11 4 12 23 13 1 14
REMARK SMILES IDX 12 15 13 16 14 17 15 18 19 19 16 20 18 21 17 22 20 23 22 24
REMARK SMILES IDX 21 25
REMARK H PARENT 9 7
REMARK INDEX MAP 8 1 9 2 10 3 11 4 12 5 13 6 34 7 5 8 2 9 3 10 7 11 4 12 6 13
REMARK INDEX MAP 1 14 14 15 15 16 16 17 17 18 24 19 18 20 23 21 19 22 22 23
REMARK INDEX MAP 20 24 21 25
ROOT
ATOM      1  C   UNL     1     136.250 124.750 124.245  1.00  0.00    +0.028 C 
ATOM      2  C   UNL     1     137.253 125.395 125.227  1.00  0.00    +0.024 C 
ATOM      3  C   UNL     1     136.851 126.811 125.624  1.00  0.00    +0.081 C 
ATOM      4  N   UNL     1     136.724 127.699 124.471  1.00  0.00    -0.316 NA
ATOM      5  C   UNL     1     136.141 127.073 123.283  1.00  0.00    +0.088 C 
ATOM      6  C   UNL     1     135.325 125.807 123.583  1.00  0.00    +0.048 C 
ATOM      7  H   UNL     1     136.193 128.529 124.734  1.00  0.00    +0.122 HD
ENDROOT
BRANCH   1   8
ATOM      8  C   UNL     1     135.445 123.631 124.898  1.00  0.00    -0.044 A 
ATOM      9  C   UNL     1     133.954 121.622 126.148  1.00  0.00    +0.123 A 
ATOM     10  C   UNL     1     134.940 121.276 125.232  1.00  0.00    +0.039 A 
ATOM     11  C   UNL     1     133.700 122.951 126.453  1.00  0.00    +0.039 A 
ATOM     12  C   UNL     1     135.686 122.278 124.609  1.00  0.00    +0.007 A 
ATOM     13  C   UNL     1     134.443 123.955 125.831  1.00  0.00    +0.007 A 
ATOM     14  F   UNL     1     133.242 120.657 126.746  1.00  0.00    -0.207 F 
ENDBRANCH   1   8
BRANCH   6  15
ATOM     15  C   UNL     1     134.651 125.273 122.305  1.00  0.00    +0.235 C 
BRANCH  15  16
ATOM     16  O   UNL     1     135.592 125.249 121.232  1.00  0.00    -0.493 OA
BRANCH  16  17
ATOM     17  C   UNL     1     135.297 124.454 120.158  1.00  0.00    +0.123 A 
ATOM     18  C   UNL     1     134.571 125.105 119.139  1.00  0.00    +0.050 A 
ATOM     19  C   UNL     1     135.648 123.110 120.014  1.00  0.00    +0.097 A 
ATOM     20  C   UNL     1     134.193 124.428 117.975  1.00  0.00    +0.054 A 
ATOM     21  C   UNL     1     135.263 122.466 118.855  1.00  0.00    +0.169 A 
ATOM     22  C   UNL     1     134.556 123.105 117.864  1.00  0.00    +0.166 A 
ATOM     23  O   UNL     1     135.519 121.165 118.550  1.00  0.00    -0.453 OA
ATOM     24  O   UNL     1     134.281 122.289 116.812  1.00  0.00    -0.454 OA
ATOM     25  C   UNL     1     134.894 121.060 117.253  1.00  0.00    +0.468 C 
ENDBRANCH  16  17
ENDBRANCH  15  16
ENDBRANCH   6  15
TORSDOF 4
ENDMDL
MODEL 2
REMARK VINA RESULT:   -10.008      3.015      5.190
REMARK INTER + INTRA:         -13.236
REMARK INTER:                 -11.216
REMARK INTRA:                  -2.020
REMARK UNBOUND:                -0.887
REMARK SMILES Fc1ccc([C@@H]2CCNC[C@H]2COc2ccc3c(c2)OCO3)cc1
REMARK SMILES IDX 6 1 7 2 8 3 9 4 10 5 11 6 5 8 2 9 3 10 24 11 4 12 23 13 1 14
REMARK SMILES IDX 12 15 13 16 14 17 15 18 19 19 16 20 18 21 17 22 20 23 22 24
REMARK SMILES IDX 21 25
REMARK H PARENT 9 7
REMARK INDEX MAP 8 1 9 2 10 3 11 4 12 5 13 6 34 7 5 8 2 9 3 10 7 11 4 12 6 13
REMARK INDEX MAP 1 14 14 15 15 16 16 17 17 18 24 19 18 20 23 21 19 22 22 23
REMARK INDEX MAP 20 24 21 25
ROOT
ATOM      1  C   UNL     1     136.303 124.886 124.121  1.00  0.00    +0.028 C 
ATOM      2  C   UNL     1     137.310 125.708 124.956  1.00  0.00    +0.024 C 
ATOM      3  C   UNL     1     136.803 127.114 125.260  1.00  0.00    +0.081 C 
ATOM      4  N   UNL     1     136.507 127.873 124.048  1.00  0.00    -0.316 NA
ATOM      5  C   UNL     1     135.900 127.088 122.971  1.00  0.00    +0.088 C 
ATOM      6  C   UNL     1     135.235 125.788 123.448  1.00  0.00    +0.048 C 
ATOM      7  H   UNL     1     135.918 128.674 124.280  1.00  0.00    +0.122 HD
ENDROOT
BRANCH   1   8
ATOM      8  C   UNL     1     135.660 123.767 124.934  1.00  0.00    -0.044 A 
ATOM      9  C   UNL     1     134.486 121.754 126.480  1.00  0.00    +0.123 A 
ATOM     10  C   UNL     1     135.148 121.419 125.307  1.00  0.00    +0.039 A 
ATOM     11  C   UNL     1     134.400 123.075 126.898  1.00  0.00    +0.039 A 
ATOM     12  C   UNL     1     135.737 122.423 124.535  1.00  0.00    +0.007 A 
ATOM     13  C   UNL     1     134.987 124.080 126.128  1.00  0.00    +0.007 A 
ATOM     14  F   UNL     1     133.924 120.788 127.220  1.00  0.00    -0.207 F 
ENDBRANCH   1   8
BRANCH   6  15
ATOM     15  C   UNL     1     134.522 125.078 122.281  1.00  0.00    +0.235 C 
BRANCH  15  16
ATOM     16  O   UNL     1     133.121 125.350 122.329  1.00  0.00    -0.493 OA
BRANCH  16  17
ATOM     17  C   UNL     1     132.439 124.925 123.437  1.00  0.00    +0.123 A 
ATOM     18  C   UNL     1     132.271 123.527 123.511  1.00  0.00    +0.050 A 
ATOM     19  C   UNL     1     131.924 125.744 124.444  1.00  0.00    +0.097 A 
ATOM     20  C   UNL     1     131.595 122.935 124.583  1.00  0.00    +0.054 A 
ATOM     21  C   UNL     1     131.261 125.134 125.492  1.00  0.00    +0.169 A 
ATOM     22  C   UNL     1     131.101 123.770 125.560  1.00  0.00    +0.166 A 
ATOM     23  O   UNL     1     130.700 125.774 126.553  1.00  0.00    -0.453 OA
ATOM     24  O   UNL     1     130.421 123.381 126.671  1.00  0.00    -0.454 OA
ATOM     25  C   UNL     1     130.170 124.656 127.297  1.00  0.00    +0.468 C 
ENDBRANCH  16  17
ENDBRANCH  15  16
ENDBRANCH   6  15
TORSDOF 4
ENDMDL
MODEL 3
REMARK VINA RESULT:    -9.666      2.683      3.881
REMARK INTER + INTRA:         -12.814
REMARK INTER:                 -11.154
REMARK INTRA:                  -1.660
REMARK UNBOUND:                -0.887
REMARK SMILES Fc1ccc([C@@H]2CCNC[C@H]2COc2ccc3c(c2)OCO3)cc1
REMARK SMILES IDX 6 1 7 2 8 3 9 4 10 5 11 6 5 8 2 9 3 10 24 11 4 12 23 13 1 14
REMARK SMILES IDX 12 15 13 16 14 17 15 18 19 19 16 20 18 21 17 22 20 23 22 24
REMARK SMILES IDX 21 25
REMARK H PARENT 9 7
REMARK INDEX MAP 8 1 9 2 10 3 11 4 12 5 13 6 34 7 5 8 2 9 3 10 7 11 4 12 6 13
REMARK INDEX MAP 1 14 14 15 15 16 16 17 17 18 24 19 18 20 23 21 19 22 22 23
REMARK INDEX MAP 20 24 21 25
ROOT
ATOM      1  C   UNL     1     134.361 122.269 125.215  1.00  0.00    +0.028 C 
ATOM      2  C   UNL     1     133.932 121.810 126.625  1.00  0.00    +0.024 C 
ATOM      3  C   UNL     1     134.991 122.108 127.682  1.00  0.00    +0.081 C 
ATOM      4  N   UNL     1     136.273 121.477 127.379  1.00  0.00    -0.316 NA
ATOM      5  C   UNL     1     136.629 121.473 125.959  1.00  0.00    +0.088 C 
ATOM      6  C   UNL     1     135.888 122.532 125.129  1.00  0.00    +0.048 C 
ATOM      7  H   UNL     1     137.010 121.916 127.931  1.00  0.00    +0.122 HD
ENDROOT
BRANCH   1   8
ATOM      8  C   UNL     1     133.557 123.472 124.733  1.00  0.00    -0.044 A 
ATOM      9  C   UNL     1     132.089 125.706 123.912  1.00  0.00    +0.123 A 
ATOM     10  C   UNL     1     131.949 124.505 123.228  1.00  0.00    +0.039 A 
ATOM     11  C   UNL     1     132.946 125.814 124.998  1.00  0.00    +0.039 A 
ATOM     12  C   UNL     1     132.680 123.388 123.639  1.00  0.00    +0.007 A 
ATOM     13  C   UNL     1     133.679 124.699 125.409  1.00  0.00    +0.007 A 
ATOM     14  F   UNL     1     131.383 126.775 123.517  1.00  0.00    -0.207 F 
ENDBRANCH   1   8
BRANCH   6  15
ATOM     15  C   UNL     1     136.398 122.544 123.675  1.00  0.00    +0.235 C 
BRANCH  15  16
ATOM     16  O   UNL     1     136.432 123.883 123.183  1.00  0.00    -0.493 OA
BRANCH  16  17
ATOM     17  C   UNL     1     135.886 124.111 121.949  1.00  0.00    +0.123 A 
ATOM     18  C   UNL     1     135.272 125.372 121.811  1.00  0.00    +0.050 A 
ATOM     19  C   UNL     1     135.897 123.219 120.874  1.00  0.00    +0.097 A 
ATOM     20  C   UNL     1     134.668 125.756 120.610  1.00  0.00    +0.054 A 
ATOM     21  C   UNL     1     135.294 123.623 119.698  1.00  0.00    +0.169 A 
ATOM     22  C   UNL     1     134.697 124.855 119.569  1.00  0.00    +0.166 A 
ATOM     23  O   UNL     1     135.212 122.887 118.557  1.00  0.00    -0.453 OA
ATOM     24  O   UNL     1     134.167 125.049 118.333  1.00  0.00    -0.454 OA
ATOM     25  C   UNL     1     134.496 123.798 117.696  1.00  0.00    +0.468 C 
ENDBRANCH  16  17
ENDBRANCH  15  16
ENDBRANCH   6  15
TORSDOF 4
ENDMDL
MODEL 4
REMARK VINA RESULT:    -9.600      2.319      3.480
REMARK INTER + INTRA:         -12.732
REMARK INTER:                 -11.725
REMARK INTRA:                  -1.007
REMARK UNBOUND:                -0.887
REMARK SMILES Fc1ccc([C@@H]2CCNC[C@H]2COc2ccc3c(c2)OCO3)cc1
REMARK SMILES IDX 6 1 7 2 8 3 9 4 10 5 11 6 5 8 2 9 3 10 24 11 4 12 23 13 1 14
REMARK SMILES IDX 12 15 13 16 14 17 15 18 19 19 16 20 18 21 17 22 20 23 22 24
REMARK SMILES IDX 21 25
REMARK H PARENT 9 7
REMARK INDEX MAP 8 1 9 2 10 3 11 4 12 5 13 6 34 7 5 8 2 9 3 10 7 11 4 12 6 13
REMARK INDEX MAP 1 14 14 15 15 16 16 17 17 18 24 19 18 20 23 21 19 22 22 23
REMARK INDEX MAP 20 24 21 25
ROOT
ATOM      1  C   UNL     1     133.184 124.364 126.151  1.00  0.00    +0.028 C 
ATOM      2  C   UNL     1     131.788 124.006 126.706  1.00  0.00    +0.024 C 
ATOM      3  C   UNL     1     130.724 123.949 125.614  1.00  0.00    +0.081 C 
ATOM      4  N   UNL     1     130.603 125.210 124.888  1.00  0.00    -0.316 NA
ATOM      5  C   UNL     1     131.874 125.896 124.644  1.00  0.00    +0.088 C 
ATOM      6  C   UNL     1     133.103 124.979 124.727  1.00  0.00    +0.048 C 
ATOM      7  H   UNL     1     130.108 125.054 124.009  1.00  0.00    +0.122 HD
ENDROOT
BRANCH   1   8
ATOM      8  C   UNL     1     134.143 123.179 126.196  1.00  0.00    -0.044 A 
ATOM      9  C   UNL     1     135.940 121.040 126.324  1.00  0.00    +0.123 A 
ATOM     10  C   UNL     1     135.131 121.190 125.205  1.00  0.00    +0.039 A 
ATOM     11  C   UNL     1     135.870 121.939 127.380  1.00  0.00    +0.039 A 
ATOM     12  C   UNL     1     134.235 122.259 125.139  1.00  0.00    +0.007 A 
ATOM     13  C   UNL     1     134.974 123.007 127.317  1.00  0.00    +0.007 A 
ATOM     14  F   UNL     1     136.801 120.015 126.383  1.00  0.00    -0.207 F 
ENDBRANCH   1   8
BRANCH   6  15
ATOM     15  C   UNL     1     134.385 125.743 124.347  1.00  0.00    +0.235 C 
BRANCH  15  16
ATOM     16  O   UNL     1     134.250 126.298 123.039  1.00  0.00    -0.493 OA
BRANCH  16  17
ATOM     17  C   UNL     1     134.570 125.491 121.981  1.00  0.00    +0.123 A 
ATOM     18  C   UNL     1     135.354 124.371 122.325  1.00  0.00    +0.050 A 
ATOM     19  C   UNL     1     134.191 125.696 120.653  1.00  0.00    +0.097 A 
ATOM     20  C   UNL     1     135.764 123.450 121.356  1.00  0.00    +0.054 A 
ATOM     21  C   UNL     1     134.608 124.770 119.715  1.00  0.00    +0.169 A 
ATOM     22  C   UNL     1     135.372 123.679 120.056  1.00  0.00    +0.166 A 
ATOM     23  O   UNL     1     134.332 124.813 118.384  1.00  0.00    -0.453 OA
ATOM     24  O   UNL     1     135.671 122.899 118.984  1.00  0.00    -0.454 OA
ATOM     25  C   UNL     1     135.009 123.622 117.927  1.00  0.00    +0.468 C 
ENDBRANCH  16  17
ENDBRANCH  15  16
ENDBRANCH   6  15
TORSDOF 4
ENDMDL
MODEL 5
REMARK VINA RESULT:    -9.540      3.696      6.528
REMARK INTER + INTRA:         -12.659
REMARK INTER:                 -11.309
REMARK INTRA:                  -1.349
REMARK UNBOUND:                -0.887
REMARK SMILES Fc1ccc([C@@H]2CCNC[C@H]2COc2ccc3c(c2)OCO3)cc1
REMARK SMILES IDX 6 1 7 2 8 3 9 4 10 5 11 6 5 8 2 9 3 10 24 11 4 12 23 13 1 14
REMARK SMILES IDX 12 15 13 16 14 17 15 18 19 19 16 20 18 21 17 22 20 23 22 24
REMARK SMILES IDX 21 25
REMARK H PARENT 9 7
REMARK INDEX MAP 8 1 9 2 10 3 11 4 12 5 13 6 34 7 5 8 2 9 3 10 7 11 4 12 6 13
REMARK INDEX MAP 1 14 14 15 15 16 16 17 17 18 24 19 18 20 23 21 19 22 22 23
REMARK INDEX MAP 20 24 21 25
ROOT
ATOM      1  C   UNL     1     134.789 123.158 122.108  1.00  0.00    +0.028 C 
ATOM      2  C   UNL     1     135.928 123.007 121.075  1.00  0.00    +0.024 C 
ATOM      3  C   UNL     1     136.491 124.353 120.629  1.00  0.00    +0.081 C 
ATOM      4  N   UNL     1     135.471 125.217 120.043  1.00  0.00    -0.316 NA
ATOM      5  C   UNL     1     134.164 125.146 120.698  1.00  0.00    +0.088 C 
ATOM      6  C   UNL     1     134.215 124.600 122.133  1.00  0.00    +0.048 C 
ATOM      7  H   UNL     1     135.808 126.180 120.022  1.00  0.00    +0.122 HD
ENDROOT
BRANCH   1   8
ATOM      8  C   UNL     1     135.211 122.699 123.500  1.00  0.00    -0.044 A 
ATOM      9  C   UNL     1     136.039 121.897 126.048  1.00  0.00    +0.123 A 
ATOM     10  C   UNL     1     135.195 121.076 125.311  1.00  0.00    +0.039 A 
ATOM     11  C   UNL     1     136.480 123.109 125.536  1.00  0.00    +0.039 A 
ATOM     12  C   UNL     1     134.782 121.475 124.038  1.00  0.00    +0.007 A 
ATOM     13  C   UNL     1     136.068 123.510 124.265  1.00  0.00    +0.007 A 
ATOM     14  F   UNL     1     136.436 121.510 127.268  1.00  0.00    -0.207 F 
ENDBRANCH   1   8
BRANCH   6  15
ATOM     15  C   UNL     1     132.826 124.664 122.794  1.00  0.00    +0.235 C 
BRANCH  15  16
ATOM     16  O   UNL     1     132.937 125.216 124.106  1.00  0.00    -0.493 OA
BRANCH  16  17
ATOM     17  C   UNL     1     132.027 124.798 125.040  1.00  0.00    +0.123 A 
ATOM     18  C   UNL     1     132.326 123.548 125.618  1.00  0.00    +0.050 A 
ATOM     19  C   UNL     1     130.883 125.494 125.435  1.00  0.00    +0.097 A 
ATOM     20  C   UNL     1     131.493 122.983 126.590  1.00  0.00    +0.054 A 
ATOM     21  C   UNL     1     130.078 124.914 126.397  1.00  0.00    +0.169 A 
ATOM     22  C   UNL     1     130.374 123.695 126.958  1.00  0.00    +0.166 A 
ATOM     23  O   UNL     1     128.932 125.449 126.897  1.00  0.00    -0.453 OA
ATOM     24  O   UNL     1     129.453 123.310 127.881  1.00  0.00    -0.454 OA
ATOM     25  C   UNL     1     128.541 124.427 127.838  1.00  0.00    +0.468 C 
ENDBRANCH  16  17
ENDBRANCH  15  16
ENDBRANCH   6  15
TORSDOF 4
ENDMDL
MODEL 6
REMARK VINA RESULT:    -9.512      4.150      6.590
REMARK INTER + INTRA:         -12.623
REMARK INTER:                 -11.814
REMARK INTRA:                  -0.809
REMARK UNBOUND:                -0.887
REMARK SMILES Fc1ccc([C@@H]2CCNC[C@H]2COc2ccc3c(c2)OCO3)cc1
REMARK SMILES IDX 6 1 7 2 8 3 9 4 10 5 11 6 5 8 2 9 3 10 24 11 4 12 23 13 1 14
REMARK SMILES IDX 12 15 13 16 14 17 15 18 19 19 16 20 18 21 17 22 20 23 22 24
REMARK SMILES IDX 21 25
REMARK H PARENT 9 7
REMARK INDEX MAP 8 1 9 2 10 3 11 4 12 5 13 6 34 7 5 8 2 9 3 10 7 11 4 12 6 13
REMARK INDEX MAP 1 14 14 15 15 16 16 17 17 18 24 19 18 20 23 21 19 22 22 23
REMARK INDEX MAP 20 24 21 25
ROOT
ATOM      1  C   UNL     1     134.497 123.289 122.762  1.00  0.00    +0.028 C 
ATOM      2  C   UNL     1     135.765 123.370 121.884  1.00  0.00    +0.024 C 
ATOM      3  C   UNL     1     136.132 124.806 121.523  1.00  0.00    +0.081 C 
ATOM      4  N   UNL     1     135.057 125.494 120.815  1.00  0.00    -0.316 NA
ATOM      5  C   UNL     1     133.711 125.176 121.296  1.00  0.00    +0.088 C 
ATOM      6  C   UNL     1     133.677 124.606 122.721  1.00  0.00    +0.048 C 
ATOM      7  H   UNL     1     135.217 126.502 120.844  1.00  0.00    +0.122 HD
ENDROOT
BRANCH   1   8
ATOM      8  C   UNL     1     134.814 122.869 124.193  1.00  0.00    -0.044 A 
ATOM      9  C   UNL     1     135.420 122.165 126.831  1.00  0.00    +0.123 A 
ATOM     10  C   UNL     1     135.333 121.175 125.860  1.00  0.00    +0.039 A 
ATOM     11  C   UNL     1     135.213 123.499 126.511  1.00  0.00    +0.039 A 
ATOM     12  C   UNL     1     135.032 121.527 124.542  1.00  0.00    +0.007 A 
ATOM     13  C   UNL     1     134.911 123.852 125.194  1.00  0.00    +0.007 A 
ATOM     14  F   UNL     1     135.711 121.824 128.094  1.00  0.00    -0.207 F 
ENDBRANCH   1   8
BRANCH   6  15
ATOM     15  C   UNL     1     132.226 124.406 123.198  1.00  0.00    +0.235 C 
BRANCH  15  16
ATOM     16  O   UNL     1     131.462 125.584 122.938  1.00  0.00    -0.493 OA
BRANCH  16  17
ATOM     17  C   UNL     1     131.064 126.322 124.020  1.00  0.00    +0.123 A 
ATOM     18  C   UNL     1     129.867 127.040 123.822  1.00  0.00    +0.050 A 
ATOM     19  C   UNL     1     131.733 126.406 125.243  1.00  0.00    +0.097 A 
ATOM     20  C   UNL     1     129.327 127.841 124.833  1.00  0.00    +0.054 A 
ATOM     21  C   UNL     1     131.178 127.204 126.225  1.00  0.00    +0.169 A 
ATOM     22  C   UNL     1     130.010 127.901 126.027  1.00  0.00    +0.166 A 
ATOM     23  O   UNL     1     131.692 127.400 127.469  1.00  0.00    -0.453 OA
ATOM     24  O   UNL     1     129.642 128.621 127.119  1.00  0.00    -0.454 OA
ATOM     25  C   UNL     1     130.713 128.300 128.031  1.00  0.00    +0.468 C 
ENDBRANCH  16  17
ENDBRANCH  15  16
ENDBRANCH   6  15
TORSDOF 4
ENDMDL
MODEL 7
REMARK VINA RESULT:    -9.455      3.421      4.835
REMARK INTER + INTRA:         -12.553
REMARK INTER:                 -11.134
REMARK INTRA:                  -1.419
REMARK UNBOUND:                -0.887
REMARK SMILES Fc1ccc([C@@H]2CCNC[C@H]2COc2ccc3c(c2)OCO3)cc1
REMARK SMILES IDX 6 1 7 2 8 3 9 4 10 5 11 6 5 8 2 9 3 10 24 11 4 12 23 13 1 14
REMARK SMILES IDX 12 15 13 16 14 17 15 18 19 19 16 20 18 21 17 22 20 23 22 24
REMARK SMILES IDX 21 25
REMARK H PARENT 9 7
REMARK INDEX MAP 8 1 9 2 10 3 11 4 12 5 13 6 34 7 5 8 2 9 3 10 7 11 4 12 6 13
REMARK INDEX MAP 1 14 14 15 15 16 16 17 17 18 24 19 18 20 23 21 19 22 22 23
REMARK INDEX MAP 20 24 21 25
ROOT
ATOM      1  C   UNL     1     131.094 125.659 126.405  1.00  0.00    +0.028 C 
ATOM      2  C   UNL     1     130.044 125.635 127.538  1.00  0.00    +0.024 C 
ATOM      3  C   UNL     1     128.632 125.385 127.017  1.00  0.00    +0.081 C 
ATOM      4  N   UNL     1     128.212 126.388 126.043  1.00  0.00    -0.316 NA
ATOM      5  C   UNL     1     129.268 126.827 125.128  1.00  0.00    +0.088 C 
ATOM      6  C   UNL     1     130.439 125.841 125.010  1.00  0.00    +0.048 C 
ATOM      7  H   UNL     1     127.408 126.042 125.519  1.00  0.00    +0.122 HD
ENDROOT
BRANCH   1   8
ATOM      8  C   UNL     1     132.006 124.437 126.441  1.00  0.00    -0.044 A 
ATOM      9  C   UNL     1     133.627 122.160 126.532  1.00  0.00    +0.123 A 
ATOM     10  C   UNL     1     134.213 123.419 126.551  1.00  0.00    +0.039 A 
ATOM     11  C   UNL     1     132.248 122.015 126.471  1.00  0.00    +0.039 A 
ATOM     12  C   UNL     1     133.404 124.557 126.507  1.00  0.00    +0.007 A 
ATOM     13  C   UNL     1     131.438 123.151 126.426  1.00  0.00    +0.007 A 
ATOM     14  F   UNL     1     134.406 121.070 126.577  1.00  0.00    -0.207 F 
ENDBRANCH   1   8
BRANCH   6  15
ATOM     15  C   UNL     1     131.449 126.314 123.948  1.00  0.00    +0.235 C 
BRANCH  15  16
ATOM     16  O   UNL     1     131.435 125.424 122.831  1.00  0.00    -0.493 OA
BRANCH  16  17
ATOM     17  C   UNL     1     132.637 124.914 122.422  1.00  0.00    +0.123 A 
ATOM     18  C   UNL     1     133.060 123.779 123.143  1.00  0.00    +0.050 A 
ATOM     19  C   UNL     1     133.430 125.420 121.390  1.00  0.00    +0.097 A 
ATOM     20  C   UNL     1     134.267 123.141 122.844  1.00  0.00    +0.054 A 
ATOM     21  C   UNL     1     134.618 124.771 121.115  1.00  0.00    +0.169 A 
ATOM     22  C   UNL     1     135.026 123.663 121.821  1.00  0.00    +0.166 A 
ATOM     23  O   UNL     1     135.509 125.125 120.150  1.00  0.00    -0.453 OA
ATOM     24  O   UNL     1     136.221 123.182 121.388  1.00  0.00    -0.454 OA
ATOM     25  C   UNL     1     136.522 124.113 120.329  1.00  0.00    +0.468 C 
ENDBRANCH  16  17
ENDBRANCH  15  16
ENDBRANCH   6  15
TORSDOF 4
ENDMDL
MODEL 8
REMARK VINA RESULT:    -9.415      2.280      3.137
REMARK INTER + INTRA:         -12.503
REMARK INTER:                 -11.952
REMARK INTRA:                  -0.552
REMARK UNBOUND:                -0.887
REMARK SMILES Fc1ccc([C@@H]2CCNC[C@H]2COc2ccc3c(c2)OCO3)cc1
REMARK SMILES IDX 6 1 7 2 8 3 9 4 10 5 11 6 5 8 2 9 3 10 24 11 4 12 23 13 1 14
REMARK SMILES IDX 12 15 13 16 14 17 15 18 19 19 16 20 18 21 17 22 20 23 22 24
REMARK SMILES IDX 21 25
REMARK H PARENT 9 7
REMARK INDEX MAP 8 1 9 2 10 3 11 4 12 5 13 6 34 7 5 8 2 9 3 10 7 11 4 12 6 13
REMARK INDEX MAP 1 14 14 15 15 16 16 17 17 18 24 19 18 20 23 21 19 22 22 23
REMARK INDEX MAP 20 24 21 25
ROOT
ATOM      1  C   UNL     1     133.887 122.666 124.784  1.00  0.00    +0.028 C 
ATOM      2  C   UNL     1     134.585 121.666 125.732  1.00  0.00    +0.024 C 
ATOM      3  C   UNL     1     136.011 122.086 126.072  1.00  0.00    +0.081 C 
ATOM      4  N   UNL     1     136.848 122.230 124.884  1.00  0.00    -0.316 NA
ATOM      5  C   UNL     1     136.165 122.812 123.726  1.00  0.00    +0.088 C 
ATOM      6  C   UNL     1     134.902 123.608 124.084  1.00  0.00    +0.048 C 
ATOM      7  H   UNL     1     137.681 122.772 125.115  1.00  0.00    +0.122 HD
ENDROOT
BRANCH   1   8
ATOM      8  C   UNL     1     132.785 123.452 125.488  1.00  0.00    -0.044 A 
ATOM      9  C   UNL     1     130.814 124.934 126.806  1.00  0.00    +0.123 A 
ATOM     10  C   UNL     1     130.542 123.630 126.412  1.00  0.00    +0.039 A 
ATOM     11  C   UNL     1     132.051 125.512 126.557  1.00  0.00    +0.039 A 
ATOM     12  C   UNL     1     131.527 122.889 125.755  1.00  0.00    +0.007 A 
ATOM     13  C   UNL     1     133.036 124.773 125.900  1.00  0.00    +0.007 A 
ATOM     14  F   UNL     1     129.868 125.641 127.439  1.00  0.00    -0.207 F 
ENDBRANCH   1   8
BRANCH   6  15
ATOM     15  C   UNL     1     134.307 124.282 122.833  1.00  0.00    +0.235 C 
BRANCH  15  16
ATOM     16  O   UNL     1     135.342 124.554 121.888  1.00  0.00    -0.493 OA
BRANCH  16  17
ATOM     17  C   UNL     1     135.152 124.109 120.608  1.00  0.00    +0.123 A 
ATOM     18  C   UNL     1     134.629 125.080 119.730  1.00  0.00    +0.050 A 
ATOM     19  C   UNL     1     135.428 122.822 120.140  1.00  0.00    +0.097 A 
ATOM     20  C   UNL     1     134.379 124.782 118.387  1.00  0.00    +0.054 A 
ATOM     21  C   UNL     1     135.172 122.554 118.808  1.00  0.00    +0.169 A 
ATOM     22  C   UNL     1     134.663 123.505 117.956  1.00  0.00    +0.166 A 
ATOM     23  O   UNL     1     135.381 121.362 118.187  1.00  0.00    -0.453 OA
ATOM     24  O   UNL     1     134.488 123.032 116.694  1.00  0.00    -0.454 OA
ATOM     25  C   UNL     1     134.945 121.673 116.847  1.00  0.00    +0.468 C 
ENDBRANCH  16  17
ENDBRANCH  15  16
ENDBRANCH   6  15
TORSDOF 4
ENDMDL
MODEL 9
REMARK VINA RESULT:    -9.258      5.507      6.831
REMARK INTER + INTRA:         -12.310
REMARK INTER:                 -11.587
REMARK INTRA:                  -0.724
REMARK UNBOUND:                -0.887
REMARK SMILES Fc1ccc([C@@H]2CCNC[C@H]2COc2ccc3c(c2)OCO3)cc1
REMARK SMILES IDX 6 1 7 2 8 3 9 4 10 5 11 6 5 8 2 9 3 10 24 11 4 12 23 13 1 14
REMARK SMILES IDX 12 15 13 16 14 17 15 18 19 19 16 20 18 21 17 22 20 23 22 24
REMARK SMILES IDX 21 25
REMARK H PARENT 9 7
REMARK INDEX MAP 8 1 9 2 10 3 11 4 12 5 13 6 34 7 5 8 2 9 3 10 7 11 4 12 6 13
REMARK INDEX MAP 1 14 14 15 15 16 16 17 17 18 24 19 18 20 23 21 19 22 22 23
REMARK INDEX MAP 20 24 21 25
ROOT
ATOM      1  C   UNL     1     129.125 126.595 125.218  1.00  0.00    +0.028 C 
ATOM      2  C   UNL     1     128.447 126.915 126.568  1.00  0.00    +0.024 C 
ATOM      3  C   UNL     1     129.441 127.403 127.617  1.00  0.00    +0.081 C 
ATOM      4  N   UNL     1     130.503 126.434 127.872  1.00  0.00    -0.316 NA
ATOM      5  C   UNL     1     130.977 125.723 126.683  1.00  0.00    +0.088 C 
ATOM      6  C   UNL     1     130.663 126.442 125.362  1.00  0.00    +0.048 C 
ATOM      7  H   UNL     1     131.281 126.894 128.346  1.00  0.00    +0.122 HD
ENDROOT
BRANCH   1   8
ATOM      8  C   UNL     1     128.761 127.607 124.137  1.00  0.00    -0.044 A 
ATOM      9  C   UNL     1     128.068 129.412 122.116  1.00  0.00    +0.123 A 
ATOM     10  C   UNL     1     129.076 129.741 123.013  1.00  0.00    +0.039 A 
ATOM     11  C   UNL     1     127.401 128.198 122.206  1.00  0.00    +0.039 A 
ATOM     12  C   UNL     1     129.424 128.840 124.022  1.00  0.00    +0.007 A 
ATOM     13  C   UNL     1     127.747 127.296 123.214  1.00  0.00    +0.007 A 
ATOM     14  F   UNL     1     127.739 130.278 121.148  1.00  0.00    -0.207 F 
ENDBRANCH   1   8
BRANCH   6  15
ATOM     15  C   UNL     1     131.291 125.696 124.170  1.00  0.00    +0.235 C 
BRANCH  15  16
ATOM     16  O   UNL     1     132.690 125.973 124.105  1.00  0.00    -0.493 OA
BRANCH  16  17
ATOM     17  C   UNL     1     133.378 125.469 123.035  1.00  0.00    +0.123 A 
ATOM     18  C   UNL     1     133.434 126.334 121.923  1.00  0.00    +0.050 A 
ATOM     19  C   UNL     1     133.996 124.217 122.976  1.00  0.00    +0.097 A 
ATOM     20  C   UNL     1     134.102 125.964 120.751  1.00  0.00    +0.054 A 
ATOM     21  C   UNL     1     134.650 123.877 121.807  1.00  0.00    +0.169 A 
ATOM     22  C   UNL     1     134.702 124.725 120.726  1.00  0.00    +0.166 A 
ATOM     23  O   UNL     1     135.302 122.706 121.577  1.00  0.00    -0.453 OA
ATOM     24  O   UNL     1     135.393 124.195 119.683  1.00  0.00    -0.454 OA
ATOM     25  C   UNL     1     135.771 122.915 120.229  1.00  0.00    +0.468 C 
ENDBRANCH  16  17
ENDBRANCH  15  16
ENDBRANCH   6  15
TORSDOF 4
ENDMDL
MODEL 10
REMARK VINA RESULT:    -9.207      3.980      6.685
REMARK INTER + INTRA:         -12.248
REMARK INTER:                 -11.201
REMARK INTRA:                  -1.046
REMARK UNBOUND:                -0.887
REMARK SMILES Fc1ccc([C@@H]2CCNC[C@H]2COc2ccc3c(c2)OCO3)cc1
REMARK SMILES IDX 6 1 7 2 8 3 9 4 10 5 11 6 5 8 2 9 3 10 24 11 4 12 23 13 1 14
REMARK SMILES IDX 12 15 13 16 14 17 15 18 19 19 16 20 18 21 17 22 20 23 22 24
REMARK SMILES IDX 21 25
REMARK H PARENT 9 7
REMARK INDEX MAP 8 1 9 2 10 3 11 4 12 5 13 6 34 7 5 8 2 9 3 10 7 11 4 12 6 13
REMARK INDEX MAP 1 14 14 15 15 16 16 17 17 18 24 19 18 20 23 21 19 22 22 23
REMARK INDEX MAP 20 24 21 25
ROOT
ATOM      1  C   UNL     1     134.696 123.318 122.237  1.00  0.00    +0.028 C 
ATOM      2  C   UNL     1     135.935 123.151 121.330  1.00  0.00    +0.024 C 
ATOM      3  C   UNL     1     136.439 124.483 120.783  1.00  0.00    +0.081 C 
ATOM      4  N   UNL     1     135.418 125.192 120.016  1.00  0.00    -0.316 NA
ATOM      5  C   UNL     1     134.063 125.085 120.561  1.00  0.00    +0.088 C 
ATOM      6  C   UNL     1     134.019 124.702 122.047  1.00  0.00    +0.048 C 
ATOM      7  H   UNL     1     135.685 126.172 119.914  1.00  0.00    +0.122 HD
ENDROOT
BRANCH   1   8
ATOM      8  C   UNL     1     135.016 123.047 123.704  1.00  0.00    -0.044 A 
ATOM      9  C   UNL     1     135.569 122.491 126.388  1.00  0.00    +0.123 A 
ATOM     10  C   UNL     1     135.604 123.804 125.939  1.00  0.00    +0.039 A 
ATOM     11  C   UNL     1     135.260 121.449 125.524  1.00  0.00    +0.039 A 
ATOM     12  C   UNL     1     135.327 124.083 124.599  1.00  0.00    +0.007 A 
ATOM     13  C   UNL     1     134.984 121.726 124.184  1.00  0.00    +0.007 A 
ATOM     14  F   UNL     1     135.833 122.227 127.675  1.00  0.00    -0.207 F 
ENDBRANCH   1   8
BRANCH   6  15
ATOM     15  C   UNL     1     132.572 124.721 122.576  1.00  0.00    +0.235 C 
BRANCH  15  16
ATOM     16  O   UNL     1     132.252 126.022 123.068  1.00  0.00    -0.493 OA
BRANCH  16  17
ATOM     17  C   UNL     1     131.574 126.093 124.255  1.00  0.00    +0.123 A 
ATOM     18  C   UNL     1     132.052 125.214 125.247  1.00  0.00    +0.050 A 
ATOM     19  C   UNL     1     130.494 126.935 124.531  1.00  0.00    +0.097 A 
ATOM     20  C   UNL     1     131.466 125.166 126.516  1.00  0.00    +0.054 A 
ATOM     21  C   UNL     1     129.934 126.869 125.792  1.00  0.00    +0.169 A 
ATOM     22  C   UNL     1     130.405 126.010 126.757  1.00  0.00    +0.166 A 
ATOM     23  O   UNL     1     128.883 127.612 126.230  1.00  0.00    -0.453 OA
ATOM     24  O   UNL     1     129.712 126.106 127.922  1.00  0.00    -0.454 OA
ATOM     25  C   UNL     1     128.748 127.124 127.582  1.00  0.00    +0.468 C 
ENDBRANCH  16  17
ENDBRANCH  15  16
ENDBRANCH   6  15
TORSDOF 4
ENDMDL
MODEL 11
REMARK VINA RESULT:    -9.152      4.481      7.812
REMARK INTER + INTRA:         -12.180
REMARK INTER:                 -11.106
REMARK INTRA:                  -1.073
REMARK UNBOUND:                -0.887
REMARK SMILES Fc1ccc([C@@H]2CCNC[C@H]2COc2ccc3c(c2)OCO3)cc1
REMARK SMILES IDX 6 1 7 2 8 3 9 4 10 5 11 6 5 8 2 9 3 10 24 11 4 12 23 13 1 14
REMARK SMILES IDX 12 15 13 16 14 17 15 18 19 19 16 20 18 21 17 22 20 23 22 24
REMARK SMILES IDX 21 25
REMARK H PARENT 9 7
REMARK INDEX MAP 8 1 9 2 10 3 11 4 12 5 13 6 34 7 5 8 2 9 3 10 7 11 4 12 6 13
REMARK INDEX MAP 1 14 14 15 15 16 16 17 17 18 24 19 18 20 23 21 19 22 22 23
REMARK INDEX MAP 20 24 21 25
ROOT
ATOM      1  C   UNL     1     134.628 123.775 124.704  1.00  0.00    +0.028 C 
ATOM      2  C   UNL     1     136.102 123.584 125.122  1.00  0.00    +0.024 C 
ATOM      3  C   UNL     1     136.481 122.113 125.264  1.00  0.00    +0.081 C 
ATOM      4  N   UNL     1     135.648 121.415 126.239  1.00  0.00    -0.316 NA
ATOM      5  C   UNL     1     134.240 121.815 126.234  1.00  0.00    +0.088 C 
ATOM      6  C   UNL     1     133.789 122.489 124.930  1.00  0.00    +0.048 C 
ATOM      7  H   UNL     1     135.733 120.407 126.102  1.00  0.00    +0.122 HD
ENDROOT
BRANCH   1   8
ATOM      8  C   UNL     1     134.498 124.285 123.272  1.00  0.00    -0.044 A 
ATOM      9  C   UNL     1     134.313 125.180 120.629  1.00  0.00    +0.123 A 
ATOM     10  C   UNL     1     133.795 125.961 121.655  1.00  0.00    +0.039 A 
ATOM     11  C   UNL     1     134.924 123.963 120.897  1.00  0.00    +0.039 A 
ATOM     12  C   UNL     1     133.889 125.515 122.975  1.00  0.00    +0.007 A 
ATOM     13  C   UNL     1     135.017 123.515 122.216  1.00  0.00    +0.007 A 
ATOM     14  F   UNL     1     134.224 125.612 119.364  1.00  0.00    -0.207 F 
ENDBRANCH   1   8
BRANCH   6  15
ATOM     15  C   UNL     1     132.275 122.775 124.956  1.00  0.00    +0.235 C 
BRANCH  15  16
ATOM     16  O   UNL     1     131.820 122.864 126.306  1.00  0.00    -0.493 OA
BRANCH  16  17
ATOM     17  C   UNL     1     131.202 124.025 126.683  1.00  0.00    +0.123 A 
ATOM     18  C   UNL     1     129.940 123.839 127.284  1.00  0.00    +0.050 A 
ATOM     19  C   UNL     1     131.714 125.314 126.519  1.00  0.00    +0.097 A 
ATOM     20  C   UNL     1     129.181 124.928 127.725  1.00  0.00    +0.054 A 
ATOM     21  C   UNL     1     130.944 126.372 126.964  1.00  0.00    +0.169 A 
ATOM     22  C   UNL     1     129.714 126.186 127.550  1.00  0.00    +0.166 A 
ATOM     23  O   UNL     1     131.285 127.686 126.885  1.00  0.00    -0.453 OA
ATOM     24  O   UNL     1     129.129 127.357 127.913  1.00  0.00    -0.454 OA
ATOM     25  C   UNL     1     130.129 128.305 127.489  1.00  0.00    +0.468 C 
ENDBRANCH  16  17
ENDBRANCH  15  16
ENDBRANCH   6  15
TORSDOF 4
ENDMDL
MODEL 12
REMARK VINA RESULT:    -9.107      4.017      7.244
REMARK INTER + INTRA:         -12.123
REMARK INTER:                 -11.219
REMARK INTRA:                  -0.904
REMARK UNBOUND:                -0.887
REMARK SMILES Fc1ccc([C@@H]2CCNC[C@H]2COc2ccc3c(c2)OCO3)cc1
REMARK SMILES IDX 6 1 7 2 8 3 9 4 10 5 11 6 5 8 2 9 3 10 24 11 4 12 23 13 1 14
REMARK SMILES IDX 12 15 13 16 14 17 15 18 19 19 16 20 18 21 17 22 20 23 22 24
REMARK SMILES IDX 21 25
REMARK H PARENT 9 7
REMARK INDEX MAP 8 1 9 2 10 3 11 4 12 5 13 6 34 7 5 8 2 9 3 10 7 11 4 12 6 13
REMARK INDEX MAP 1 14 14 15 15 16 16 17 17 18 24 19 18 20 23 21 19 22 22 23
REMARK INDEX MAP 20 24 21 25
ROOT
ATOM      1  C   UNL     1     134.911 125.367 123.218  1.00  0.00    +0.028 C 
ATOM      2  C   UNL     1     135.964 126.442 123.565  1.00  0.00    +0.024 C 
ATOM      3  C   UNL     1     137.043 125.917 124.506  1.00  0.00    +0.081 C 
ATOM      4  N   UNL     1     136.491 125.414 125.761  1.00  0.00    -0.316 NA
ATOM      5  C   UNL     1     135.221 124.697 125.623  1.00  0.00    +0.088 C 
ATOM      6  C   UNL     1     134.955 124.170 124.206  1.00  0.00    +0.048 C 
ATOM      7  H   UNL     1     137.182 124.827 126.229  1.00  0.00    +0.122 HD
ENDROOT
BRANCH   1   8
ATOM      8  C   UNL     1     135.020 124.901 121.769  1.00  0.00    -0.044 A 
ATOM      9  C   UNL     1     135.157 124.074 119.102  1.00  0.00    +0.123 A 
ATOM     10  C   UNL     1     135.951 123.449 120.055  1.00  0.00    +0.039 A 
ATOM     11  C   UNL     1     134.294 125.102 119.454  1.00  0.00    +0.039 A 
ATOM     12  C   UNL     1     135.882 123.861 121.387  1.00  0.00    +0.007 A 
ATOM     13  C   UNL     1     134.225 125.516 120.786  1.00  0.00    +0.007 A 
ATOM     14  F   UNL     1     135.224 123.674 117.824  1.00  0.00    -0.207 F 
ENDBRANCH   1   8
BRANCH   6  15
ATOM     15  C   UNL     1     133.662 123.333 124.166  1.00  0.00    +0.235 C 
BRANCH  15  16
ATOM     16  O   UNL     1     132.547 124.174 123.873  1.00  0.00    -0.493 OA
BRANCH  16  17
ATOM     17  C   UNL     1     131.846 124.677 124.936  1.00  0.00    +0.123 A 
ATOM     18  C   UNL     1     131.246 123.696 125.750  1.00  0.00    +0.050 A 
ATOM     19  C   UNL     1     131.696 126.030 125.249  1.00  0.00    +0.097 A 
ATOM     20  C   UNL     1     130.496 124.049 126.876  1.00  0.00    +0.054 A 
ATOM     21  C   UNL     1     130.951 126.352 126.367  1.00  0.00    +0.169 A 
ATOM     22  C   UNL     1     130.368 125.391 127.158  1.00  0.00    +0.166 A 
ATOM     23  O   UNL     1     130.703 127.612 126.817  1.00  0.00    -0.453 OA
ATOM     24  O   UNL     1     129.682 125.923 128.204  1.00  0.00    -0.454 OA
ATOM     25  C   UNL     1     129.898 127.332 127.982  1.00  0.00    +0.468 C 
ENDBRANCH  16  17
ENDBRANCH  15  16
ENDBRANCH   6  15
TORSDOF 4
ENDMDL
MODEL 13
REMARK VINA RESULT:    -9.073      4.608      7.355
REMARK INTER + INTRA:         -12.082
REMARK INTER:                 -11.238
REMARK INTRA:                  -0.844
REMARK UNBOUND:                -0.887
REMARK SMILES Fc1ccc([C@@H]2CCNC[C@H]2COc2ccc3c(c2)OCO3)cc1
REMARK SMILES IDX 6 1 7 2 8 3 9 4 10 5 11 6 5 8 2 9 3 10 24 11 4 12 23 13 1 14
REMARK SMILES IDX 12 15 13 16 14 17 15 18 19 19 16 20 18 21 17 22 20 23 22 24
REMARK SMILES IDX 21 25
REMARK H PARENT 9 7
REMARK INDEX MAP 8 1 9 2 10 3 11 4 12 5 13 6 34 7 5 8 2 9 3 10 7 11 4 12 6 13
REMARK INDEX MAP 1 14 14 15 15 16 16 17 17 18 24 19 18 20 23 21 19 22 22 23
REMARK INDEX MAP 20 24 21 25
ROOT
ATOM      1  C   UNL     1     134.716 125.913 122.472  1.00  0.00    +0.028 C 
ATOM      2  C   UNL     1     136.043 126.599 122.866  1.00  0.00    +0.024 C 
ATOM      3  C   UNL     1     136.694 125.949 124.083  1.00  0.00    +0.081 C 
ATOM      4  N   UNL     1     135.822 125.961 125.255  1.00  0.00    -0.316 NA
ATOM      5  C   UNL     1     134.407 125.724 124.962  1.00  0.00    +0.088 C 
ATOM      6  C   UNL     1     134.158 125.026 123.617  1.00  0.00    +0.048 C 
ATOM      7  H   UNL     1     136.162 125.287 125.942  1.00  0.00    +0.122 HD
ENDROOT
BRANCH   1   8
ATOM      8  C   UNL     1     134.838 125.133 121.167  1.00  0.00    -0.044 A 
ATOM      9  C   UNL     1     135.120 123.674 118.798  1.00  0.00    +0.123 A 
ATOM     10  C   UNL     1     134.370 124.843 118.798  1.00  0.00    +0.039 A 
ATOM     11  C   UNL     1     135.734 123.220 119.957  1.00  0.00    +0.039 A 
ATOM     12  C   UNL     1     134.230 125.573 119.980  1.00  0.00    +0.007 A 
ATOM     13  C   UNL     1     135.594 123.948 121.140  1.00  0.00    +0.007 A 
ATOM     14  F   UNL     1     135.254 122.977 117.661  1.00  0.00    -0.207 F 
ENDBRANCH   1   8
BRANCH   6  15
ATOM     15  C   UNL     1     132.662 124.708 123.433  1.00  0.00    +0.235 C 
BRANCH  15  16
ATOM     16  O   UNL     1     131.933 125.915 123.203  1.00  0.00    -0.493 OA
BRANCH  16  17
ATOM     17  C   UNL     1     131.008 126.275 124.145  1.00  0.00    +0.123 A 
ATOM     18  C   UNL     1     130.194 127.363 123.769  1.00  0.00    +0.050 A 
ATOM     19  C   UNL     1     130.829 125.668 125.390  1.00  0.00    +0.097 A 
ATOM     20  C   UNL     1     129.199 127.851 124.622  1.00  0.00    +0.054 A 
ATOM     21  C   UNL     1     129.839 126.170 126.213  1.00  0.00    +0.169 A 
ATOM     22  C   UNL     1     129.047 127.230 125.841  1.00  0.00    +0.166 A 
ATOM     23  O   UNL     1     129.528 125.702 127.452  1.00  0.00    -0.453 OA
ATOM     24  O   UNL     1     128.139 127.561 126.796  1.00  0.00    -0.454 OA
ATOM     25  C   UNL     1     128.449 126.589 127.815  1.00  0.00    +0.468 C 
ENDBRANCH  16  17
ENDBRANCH  15  16
ENDBRANCH   6  15
TORSDOF 4
ENDMDL
MODEL 14
REMARK VINA RESULT:    -8.908      4.978      8.191
REMARK INTER + INTRA:         -11.878
REMARK INTER:                 -11.456
REMARK INTRA:                  -0.422
REMARK UNBOUND:                -0.887
REMARK SMILES Fc1ccc([C@@H]2CCNC[C@H]2COc2ccc3c(c2)OCO3)cc1
REMARK SMILES IDX 6 1 7 2 8 3 9 4 10 5 11 6 5 8 2 9 3 10 24 11 4 12 23 13 1 14
REMARK SMILES IDX 12 15 13 16 14 17 15 18 19 19 16 20 18 21 17 22 20 23 22 24
REMARK SMILES IDX 21 25
REMARK H PARENT 9 7
REMARK INDEX MAP 8 1 9 2 10 3 11 4 12 5 13 6 34 7 5 8 2 9 3 10 7 11 4 12 6 13
REMARK INDEX MAP 1 14 14 15 15 16 16 17 17 18 24 19 18 20 23 21 19 22 22 23
REMARK INDEX MAP 20 24 21 25
ROOT
ATOM      1  C   UNL     1     134.956 123.938 123.984  1.00  0.00    +0.028 C 
ATOM      2  C   UNL     1     135.988 122.806 124.181  1.00  0.00    +0.024 C 
ATOM      3  C   UNL     1     135.333 121.479 124.552  1.00  0.00    +0.081 C 
ATOM      4  N   UNL     1     134.537 121.573 125.773  1.00  0.00    -0.316 NA
ATOM      5  C   UNL     1     133.796 122.827 125.922  1.00  0.00    +0.088 C 
ATOM      6  C   UNL     1     133.577 123.581 124.602  1.00  0.00    +0.048 C 
ATOM      7  H   UNL     1     133.903 120.775 125.831  1.00  0.00    +0.122 HD
ENDROOT
BRANCH   1   8
ATOM      8  C   UNL     1     134.825 124.348 122.521  1.00  0.00    -0.044 A 
ATOM      9  C   UNL     1     134.637 125.058 119.823  1.00  0.00    +0.123 A 
ATOM     10  C   UNL     1     134.163 125.929 120.795  1.00  0.00    +0.039 A 
ATOM     11  C   UNL     1     135.206 123.841 120.171  1.00  0.00    +0.039 A 
ATOM     12  C   UNL     1     134.258 125.576 122.143  1.00  0.00    +0.007 A 
ATOM     13  C   UNL     1     135.300 123.486 121.517  1.00  0.00    +0.007 A 
ATOM     14  F   UNL     1     134.547 125.401 118.530  1.00  0.00    -0.207 F 
ENDBRANCH   1   8
BRANCH   6  15
ATOM     15  C   UNL     1     132.696 124.825 124.821  1.00  0.00    +0.235 C 
BRANCH  15  16
ATOM     16  O   UNL     1     131.324 124.439 124.912  1.00  0.00    -0.493 OA
BRANCH  16  17
ATOM     17  C   UNL     1     130.617 124.892 125.993  1.00  0.00    +0.123 A 
ATOM     18  C   UNL     1     130.902 126.225 126.352  1.00  0.00    +0.050 A 
ATOM     19  C   UNL     1     129.682 124.157 126.725  1.00  0.00    +0.097 A 
ATOM     20  C   UNL     1     130.261 126.835 127.435  1.00  0.00    +0.054 A 
ATOM     21  C   UNL     1     129.063 124.783 127.790  1.00  0.00    +0.169 A 
ATOM     22  C   UNL     1     129.344 126.084 128.136  1.00  0.00    +0.166 A 
ATOM     23  O   UNL     1     128.132 124.221 128.606  1.00  0.00    -0.453 OA
ATOM     24  O   UNL     1     128.625 126.503 129.210  1.00  0.00    -0.454 OA
ATOM     25  C   UNL     1     127.859 125.317 129.504  1.00  0.00    +0.468 C 
ENDBRANCH  16  17
ENDBRANCH  15  16
ENDBRANCH   6  15
TORSDOF 4
ENDMDL
MODEL 15
REMARK VINA RESULT:    -8.893      3.127      6.275
REMARK INTER + INTRA:         -11.860
REMARK INTER:                 -11.096
REMARK INTRA:                  -0.763
REMARK UNBOUND:                -0.887
REMARK SMILES Fc1ccc([C@@H]2CCNC[C@H]2COc2ccc3c(c2)OCO3)cc1
REMARK SMILES IDX 6 1 7 2 8 3 9 4 10 5 11 6 5 8 2 9 3 10 24 11 4 12 23 13 1 14
REMARK SMILES IDX 12 15 13 16 14 17 15 18 19 19 16 20 18 21 17 22 20 23 22 24
REMARK SMILES IDX 21 25
REMARK H PARENT 9 7
REMARK INDEX MAP 8 1 9 2 10 3 11 4 12 5 13 6 34 7 5 8 2 9 3 10 7 11 4 12 6 13
REMARK INDEX MAP 1 14 14 15 15 16 16 17 17 18 24 19 18 20 23 21 19 22 22 23
REMARK INDEX MAP 20 24 21 25
ROOT
ATOM      1  C   UNL     1     134.462 126.130 122.177  1.00  0.00    +0.028 C 
ATOM      2  C   UNL     1     135.672 127.038 122.487  1.00  0.00    +0.024 C 
ATOM      3  C   UNL     1     136.357 126.668 123.799  1.00  0.00    +0.081 C 
ATOM      4  N   UNL     1     135.448 126.735 124.940  1.00  0.00    -0.316 NA
ATOM      5  C   UNL     1     134.087 126.270 124.662  1.00  0.00    +0.088 C 
ATOM      6  C   UNL     1     133.981 125.355 123.433  1.00  0.00    +0.048 C 
ATOM      7  H   UNL     1     135.846 126.221 125.726  1.00  0.00    +0.122 HD
ENDROOT
BRANCH   1   8
ATOM      8  C   UNL     1     134.732 125.190 121.007  1.00  0.00    -0.044 A 
ATOM      9  C   UNL     1     135.173 123.492 118.829  1.00  0.00    +0.123 A 
ATOM     10  C   UNL     1     135.674 123.149 120.078  1.00  0.00    +0.039 A 
ATOM     11  C   UNL     1     134.455 124.666 118.646  1.00  0.00    +0.039 A 
ATOM     12  C   UNL     1     135.453 123.996 121.167  1.00  0.00    +0.007 A 
ATOM     13  C   UNL     1     134.233 125.513 119.733  1.00  0.00    +0.007 A 
ATOM     14  F   UNL     1     135.385 122.677 117.787  1.00  0.00    -0.207 F 
ENDBRANCH   1   8
BRANCH   6  15
ATOM     15  C   UNL     1     132.547 124.816 123.273  1.00  0.00    +0.235 C 
BRANCH  15  16
ATOM     16  O   UNL     1     132.531 123.405 123.491  1.00  0.00    -0.493 OA
BRANCH  16  17
ATOM     17  C   UNL     1     133.332 122.916 124.487  1.00  0.00    +0.123 A 
ATOM     18  C   UNL     1     132.736 122.924 125.765  1.00  0.00    +0.050 A 
ATOM     19  C   UNL     1     134.634 122.437 124.328  1.00  0.00    +0.097 A 
ATOM     20  C   UNL     1     133.426 122.456 126.888  1.00  0.00    +0.054 A 
ATOM     21  C   UNL     1     135.293 121.980 125.453  1.00  0.00    +0.169 A 
ATOM     22  C   UNL     1     134.707 121.989 126.697  1.00  0.00    +0.166 A 
ATOM     23  O   UNL     1     136.558 121.481 125.481  1.00  0.00    -0.453 OA
ATOM     24  O   UNL     1     135.528 121.496 127.662  1.00  0.00    -0.454 OA
ATOM     25  C   UNL     1     136.700 121.176 126.885  1.00  0.00    +0.468 C 
ENDBRANCH  16  17
ENDBRANCH  15  16
ENDBRANCH   6  15
TORSDOF 4
ENDMDL
MODEL 16
REMARK VINA RESULT:    -8.719      3.262      6.654
REMARK INTER + INTRA:         -11.645
REMARK INTER:                 -11.402
REMARK INTRA:                  -0.242
REMARK UNBOUND:                -0.887
REMARK SMILES Fc1ccc([C@@H]2CCNC[C@H]2COc2ccc3c(c2)OCO3)cc1
REMARK SMILES IDX 6 1 7 2 8 3 9 4 10 5 11 6 5 8 2 9 3 10 24 11 4 12 23 13 1 14
REMARK SMILES IDX 12 15 13 16 14 17 15 18 19 19 16 20 18 21 17 22 20 23 22 24
REMARK SMILES IDX 21 25
REMARK H PARENT 9 7
REMARK INDEX MAP 8 1 9 2 10 3 11 4 12 5 13 6 34 7 5 8 2 9 3 10 7 11 4 12 6 13
REMARK INDEX MAP 1 14 14 15 15 16 16 17 17 18 24 19 18 20 23 21 19 22 22 23
REMARK INDEX MAP 20 24 21 25
ROOT
ATOM      1  C   UNL     1     134.605 124.483 121.200  1.00  0.00    +0.028 C 
ATOM      2  C   UNL     1     133.742 125.751 121.017  1.00  0.00    +0.024 C 
ATOM      3  C   UNL     1     134.566 127.032 121.100  1.00  0.00    +0.081 C 
ATOM      4  N   UNL     1     135.276 127.157 122.370  1.00  0.00    -0.316 NA
ATOM      5  C   UNL     1     135.815 125.899 122.892  1.00  0.00    +0.088 C 
ATOM      6  C   UNL     1     135.988 124.806 121.827  1.00  0.00    +0.048 C 
ATOM      7  H   UNL     1     136.017 127.853 122.282  1.00  0.00    +0.122 HD
ENDROOT
BRANCH   1   8
ATOM      8  C   UNL     1     134.748 123.693 119.903  1.00  0.00    -0.044 A 
ATOM      9  C   UNL     1     134.964 122.286 117.496  1.00  0.00    +0.123 A 
ATOM     10  C   UNL     1     135.324 121.667 118.686  1.00  0.00    +0.039 A 
ATOM     11  C   UNL     1     134.495 123.592 117.484  1.00  0.00    +0.039 A 
ATOM     12  C   UNL     1     135.216 122.369 119.889  1.00  0.00    +0.007 A 
ATOM     13  C   UNL     1     134.387 124.295 118.685  1.00  0.00    +0.007 A 
ATOM     14  F   UNL     1     135.067 121.609 116.344  1.00  0.00    -0.207 F 
ENDBRANCH   1   8
BRANCH   6  15
ATOM     15  C   UNL     1     136.664 123.559 122.426  1.00  0.00    +0.235 C 
BRANCH  15  16
ATOM     16  O   UNL     1     136.685 123.654 123.850  1.00  0.00    -0.493 OA
BRANCH  16  17
ATOM     17  C   UNL     1     135.655 123.063 124.531  1.00  0.00    +0.123 A 
ATOM     18  C   UNL     1     135.783 121.666 124.674  1.00  0.00    +0.050 A 
ATOM     19  C   UNL     1     134.544 123.720 125.065  1.00  0.00    +0.097 A 
ATOM     20  C   UNL     1     134.813 120.916 125.346  1.00  0.00    +0.054 A 
ATOM     21  C   UNL     1     133.601 122.955 125.725  1.00  0.00    +0.169 A 
ATOM     22  C   UNL     1     133.731 121.594 125.862  1.00  0.00    +0.166 A 
ATOM     23  O   UNL     1     132.464 123.427 126.303  1.00  0.00    -0.453 OA
ATOM     24  O   UNL     1     132.694 121.039 126.544  1.00  0.00    -0.454 OA
ATOM     25  C   UNL     1     131.894 122.206 126.821  1.00  0.00    +0.468 C 
ENDBRANCH  16  17
ENDBRANCH  15  16
ENDBRANCH   6  15
TORSDOF 4
ENDMDL
MODEL 17
REMARK VINA RESULT:    -8.653      5.241      7.327
REMARK INTER + INTRA:         -11.564
REMARK INTER:                 -10.347
REMARK INTRA:                  -1.217
REMARK UNBOUND:                -0.887
REMARK SMILES Fc1ccc([C@@H]2CCNC[C@H]2COc2ccc3c(c2)OCO3)cc1
REMARK SMILES IDX 6 1 7 2 8 3 9 4 10 5 11 6 5 8 2 9 3 10 24 11 4 12 23 13 1 14
REMARK SMILES IDX 12 15 13 16 14 17 15 18 19 19 16 20 18 21 17 22 20 23 22 24
REMARK SMILES IDX 21 25
REMARK H PARENT 9 7
REMARK INDEX MAP 8 1 9 2 10 3 11 4 12 5 13 6 34 7 5 8 2 9 3 10 7 11 4 12 6 13
REMARK INDEX MAP 1 14 14 15 15 16 16 17 17 18 24 19 18 20 23 21 19 22 22 23
REMARK INDEX MAP 20 24 21 25
ROOT
ATOM      1  C   UNL     1     129.311 126.238 126.824  1.00  0.00    +0.028 C 
ATOM      2  C   UNL     1     127.875 126.652 127.214  1.00  0.00    +0.024 C 
ATOM      3  C   UNL     1     127.231 125.671 128.188  1.00  0.00    +0.081 C 
ATOM      4  N   UNL     1     127.172 124.313 127.653  1.00  0.00    -0.316 NA
ATOM      5  C   UNL     1     128.346 123.915 126.874  1.00  0.00    +0.088 C 
ATOM      6  C   UNL     1     129.600 124.752 127.166  1.00  0.00    +0.048 C 
ATOM      7  H   UNL     1     127.007 123.652 128.413  1.00  0.00    +0.122 HD
ENDROOT
BRANCH   1   8
ATOM      8  C   UNL     1     130.361 127.166 127.425  1.00  0.00    -0.044 A 
ATOM      9  C   UNL     1     132.242 128.885 128.578  1.00  0.00    +0.123 A 
ATOM     10  C   UNL     1     132.336 128.572 127.228  1.00  0.00    +0.039 A 
ATOM     11  C   UNL     1     131.226 128.358 129.364  1.00  0.00    +0.039 A 
ATOM     12  C   UNL     1     131.396 127.716 126.651  1.00  0.00    +0.007 A 
ATOM     13  C   UNL     1     130.287 127.501 128.789  1.00  0.00    +0.007 A 
ATOM     14  F   UNL     1     133.144 129.709 129.128  1.00  0.00    -0.207 F 
ENDBRANCH   1   8
BRANCH   6  15
ATOM     15  C   UNL     1     130.817 124.202 126.398  1.00  0.00    +0.235 C 
BRANCH  15  16
ATOM     16  O   UNL     1     130.715 124.544 125.015  1.00  0.00    -0.493 OA
BRANCH  16  17
ATOM     17  C   UNL     1     131.870 124.895 124.371  1.00  0.00    +0.123 A 
ATOM     18  C   UNL     1     133.016 124.891 125.193  1.00  0.00    +0.050 A 
ATOM     19  C   UNL     1     131.982 125.239 123.022  1.00  0.00    +0.097 A 
ATOM     20  C   UNL     1     134.274 125.226 124.683  1.00  0.00    +0.054 A 
ATOM     21  C   UNL     1     133.236 125.565 122.543  1.00  0.00    +0.169 A 
ATOM     22  C   UNL     1     134.350 125.559 123.349  1.00  0.00    +0.166 A 
ATOM     23  O   UNL     1     133.526 125.923 121.263  1.00  0.00    -0.453 OA
ATOM     24  O   UNL     1     135.479 125.910 122.679  1.00  0.00    -0.454 OA
ATOM     25  C   UNL     1     134.950 126.139 121.357  1.00  0.00    +0.468 C 
ENDBRANCH  16  17
ENDBRANCH  15  16
ENDBRANCH   6  15
TORSDOF 4
ENDMDL
MODEL 18
REMARK VINA RESULT:    -8.546      5.276      7.323
REMARK INTER + INTRA:         -11.432
REMARK INTER:                 -10.655
REMARK INTRA:                  -0.777
REMARK UNBOUND:                -0.887
REMARK SMILES Fc1ccc([C@@H]2CCNC[C@H]2COc2ccc3c(c2)OCO3)cc1
REMARK SMILES IDX 6 1 7 2 8 3 9 4 10 5 11 6 5 8 2 9 3 10 24 11 4 12 23 13 1 14
REMARK SMILES IDX 12 15 13 16 14 17 15 18 19 19 16 20 18 21 17 22 20 23 22 24
REMARK SMILES IDX 21 25
REMARK H PARENT 9 7
REMARK INDEX MAP 8 1 9 2 10 3 11 4 12 5 13 6 34 7 5 8 2 9 3 10 7 11 4 12 6 13
REMARK INDEX MAP 1 14 14 15 15 16 16 17 17 18 24 19 18 20 23 21 19 22 22 23
REMARK INDEX MAP 20 24 21 25
ROOT
ATOM      1  C   UNL     1     130.622 127.917 125.925  1.00  0.00    +0.028 C 
ATOM      2  C   UNL     1     129.377 128.601 125.319  1.00  0.00    +0.024 C 
ATOM      3  C   UNL     1     128.510 127.632 124.522  1.00  0.00    +0.081 C 
ATOM      4  N   UNL     1     129.243 126.996 123.431  1.00  0.00    -0.316 NA
ATOM      5  C   UNL     1     130.631 126.653 123.749  1.00  0.00    +0.088 C 
ATOM      6  C   UNL     1     130.917 126.548 125.254  1.00  0.00    +0.048 C 
ATOM      7  H   UNL     1     128.736 126.170 123.112  1.00  0.00    +0.122 HD
ENDROOT
BRANCH   1   8
ATOM      8  C   UNL     1     130.526 127.789 127.442  1.00  0.00    -0.044 A 
ATOM      9  C   UNL     1     130.418 127.572 130.227  1.00  0.00    +0.123 A 
ATOM     10  C   UNL     1     129.497 126.882 129.450  1.00  0.00    +0.039 A 
ATOM     11  C   UNL     1     131.394 128.367 129.641  1.00  0.00    +0.039 A 
ATOM     12  C   UNL     1     129.551 126.989 128.059  1.00  0.00    +0.007 A 
ATOM     13  C   UNL     1     131.449 128.475 128.251  1.00  0.00    +0.007 A 
ATOM     14  F   UNL     1     130.365 127.466 131.562  1.00  0.00    -0.207 F 
ENDBRANCH   1   8
BRANCH   6  15
ATOM     15  C   UNL     1     132.360 126.073 125.506  1.00  0.00    +0.235 C 
BRANCH  15  16
ATOM     16  O   UNL     1     132.353 124.724 125.974  1.00  0.00    -0.493 OA
BRANCH  16  17
ATOM     17  C   UNL     1     133.514 124.011 125.845  1.00  0.00    +0.123 A 
ATOM     18  C   UNL     1     134.205 124.245 124.638  1.00  0.00    +0.050 A 
ATOM     19  C   UNL     1     134.031 123.114 126.782  1.00  0.00    +0.097 A 
ATOM     20  C   UNL     1     135.410 123.593 124.357  1.00  0.00    +0.054 A 
ATOM     21  C   UNL     1     135.222 122.483 126.479  1.00  0.00    +0.169 A 
ATOM     22  C   UNL     1     135.893 122.716 125.301  1.00  0.00    +0.166 A 
ATOM     23  O   UNL     1     135.866 121.585 127.272  1.00  0.00    -0.453 OA
ATOM     24  O   UNL     1     137.041 121.995 125.206  1.00  0.00    -0.454 OA
ATOM     25  C   UNL     1     137.018 121.280 126.458  1.00  0.00    +0.468 C 
ENDBRANCH  16  17
ENDBRANCH  15  16
ENDBRANCH   6  15
TORSDOF 4
ENDMDL
MODEL 19
REMARK VINA RESULT:    -8.479      3.498      6.979
REMARK INTER + INTRA:         -11.349
REMARK INTER:                 -11.048
REMARK INTRA:                  -0.301
REMARK UNBOUND:                -0.887
REMARK SMILES Fc1ccc([C@@H]2CCNC[C@H]2COc2ccc3c(c2)OCO3)cc1
REMARK SMILES IDX 6 1 7 2 8 3 9 4 10 5 11 6 5 8 2 9 3 10 24 11 4 12 23 13 1 14
REMARK SMILES IDX 12 15 13 16 14 17 15 18 19 19 16 20 18 21 17 22 20 23 22 24
REMARK SMILES IDX 21 25
REMARK H PARENT 9 7
REMARK INDEX MAP 8 1 9 2 10 3 11 4 12 5 13 6 34 7 5 8 2 9 3 10 7 11 4 12 6 13
REMARK INDEX MAP 1 14 14 15 15 16 16 17 17 18 24 19 18 20 23 21 19 22 22 23
REMARK INDEX MAP 20 24 21 25
ROOT
ATOM      1  C   UNL     1     134.472 124.551 121.164  1.00  0.00    +0.028 C 
ATOM      2  C   UNL     1     133.706 125.892 121.205  1.00  0.00    +0.024 C 
ATOM      3  C   UNL     1     134.617 127.074 121.521  1.00  0.00    +0.081 C 
ATOM      4  N   UNL     1     135.311 126.917 122.797  1.00  0.00    -0.316 NA
ATOM      5  C   UNL     1     135.748 125.551 123.088  1.00  0.00    +0.088 C 
ATOM      6  C   UNL     1     135.862 124.655 121.846  1.00  0.00    +0.048 C 
ATOM      7  H   UNL     1     136.101 127.561 122.839  1.00  0.00    +0.122 HD
ENDROOT
BRANCH   1   8
ATOM      8  C   UNL     1     134.582 123.996 119.747  1.00  0.00    -0.044 A 
ATOM      9  C   UNL     1     134.732 123.018 117.132  1.00  0.00    +0.123 A 
ATOM     10  C   UNL     1     135.248 122.262 118.177  1.00  0.00    +0.039 A 
ATOM     11  C   UNL     1     134.140 124.251 117.367  1.00  0.00    +0.039 A 
ATOM     12  C   UNL     1     135.172 122.750 119.483  1.00  0.00    +0.007 A 
ATOM     13  C   UNL     1     134.065 124.740 118.672  1.00  0.00    +0.007 A 
ATOM     14  F   UNL     1     134.803 122.547 115.879  1.00  0.00    -0.207 F 
ENDBRANCH   1   8
BRANCH   6  15
ATOM     15  C   UNL     1     136.436 123.274 122.216  1.00  0.00    +0.235 C 
BRANCH  15  16
ATOM     16  O   UNL     1     135.406 122.452 122.766  1.00  0.00    -0.493 OA
BRANCH  16  17
ATOM     17  C   UNL     1     135.398 122.285 124.125  1.00  0.00    +0.123 A 
ATOM     18  C   UNL     1     134.215 122.724 124.754  1.00  0.00    +0.050 A 
ATOM     19  C   UNL     1     136.432 121.737 124.887  1.00  0.00    +0.097 A 
ATOM     20  C   UNL     1     134.052 122.620 126.139  1.00  0.00    +0.054 A 
ATOM     21  C   UNL     1     136.245 121.646 126.253  1.00  0.00    +0.169 A 
ATOM     22  C   UNL     1     135.089 122.074 126.862  1.00  0.00    +0.166 A 
ATOM     23  O   UNL     1     137.141 121.141 127.143  1.00  0.00    -0.453 OA
ATOM     24  O   UNL     1     135.113 121.893 128.209  1.00  0.00    -0.454 OA
ATOM     25  C   UNL     1     136.417 121.301 128.380  1.00  0.00    +0.468 C 
ENDBRANCH  16  17
ENDBRANCH  15  16
ENDBRANCH   6  15
TORSDOF 4
ENDMDL
MODEL 20
REMARK VINA RESULT:    -8.473      4.500      7.030
REMARK INTER + INTRA:         -11.341
REMARK INTER:                 -10.208
REMARK INTRA:                  -1.133
REMARK UNBOUND:                -0.887
REMARK SMILES Fc1ccc([C@@H]2CCNC[C@H]2COc2ccc3c(c2)OCO3)cc1
REMARK SMILES IDX 6 1 7 2 8 3 9 4 10 5 11 6 5 8 2 9 3 10 24 11 4 12 23 13 1 14
REMARK SMILES IDX 12 15 13 16 14 17 15 18 19 19 16 20 18 21 17 22 20 23 22 24
REMARK SMILES IDX 21 25
REMARK H PARENT 9 7
REMARK INDEX MAP 8 1 9 2 10 3 11 4 12 5 13 6 34 7 5 8 2 9 3 10 7 11 4 12 6 13
REMARK INDEX MAP 1 14 14 15 15 16 16 17 17 18 24 19 18 20 23 21 19 22 22 23
REMARK INDEX MAP 20 24 21 25
ROOT
ATOM      1  C   UNL     1     134.428 124.994 124.209  1.00  0.00    +0.028 C 
ATOM      2  C   UNL     1     135.776 125.252 124.917  1.00  0.00    +0.024 C 
ATOM      3  C   UNL     1     136.223 124.067 125.768  1.00  0.00    +0.081 C 
ATOM      4  N   UNL     1     135.243 123.716 126.792  1.00  0.00    -0.316 NA
ATOM      5  C   UNL     1     133.847 123.832 126.364  1.00  0.00    +0.088 C 
ATOM      6  C   UNL     1     133.659 123.802 124.840  1.00  0.00    +0.048 C 
ATOM      7  H   UNL     1     135.432 122.776 127.141  1.00  0.00    +0.122 HD
ENDROOT
BRANCH   1   8
ATOM      8  C   UNL     1     134.593 124.820 122.703  1.00  0.00    -0.044 A 
ATOM      9  C   UNL     1     134.952 124.462 119.953  1.00  0.00    +0.123 A 
ATOM     10  C   UNL     1     134.243 125.563 120.414  1.00  0.00    +0.039 A 
ATOM     11  C   UNL     1     135.488 123.537 120.838  1.00  0.00    +0.039 A 
ATOM     12  C   UNL     1     134.064 125.744 121.787  1.00  0.00    +0.007 A 
ATOM     13  C   UNL     1     135.310 123.715 122.210  1.00  0.00    +0.007 A 
ATOM     14  F   UNL     1     135.124 124.293 118.634  1.00  0.00    -0.207 F 
ENDBRANCH   1   8
BRANCH   6  15
ATOM     15  C   UNL     1     132.163 123.812 124.472  1.00  0.00    +0.235 C 
BRANCH  15  16
ATOM     16  O   UNL     1     131.415 124.470 125.494  1.00  0.00    -0.493 OA
BRANCH  16  17
ATOM     17  C   UNL     1     130.944 125.724 125.215  1.00  0.00    +0.123 A 
ATOM     18  C   UNL     1     131.365 126.716 126.124  1.00  0.00    +0.050 A 
ATOM     19  C   UNL     1     130.115 126.067 124.145  1.00  0.00    +0.097 A 
ATOM     20  C   UNL     1     130.969 128.049 125.976  1.00  0.00    +0.054 A 
ATOM     21  C   UNL     1     129.739 127.390 124.021  1.00  0.00    +0.169 A 
ATOM     22  C   UNL     1     130.153 128.354 124.909  1.00  0.00    +0.166 A 
ATOM     23  O   UNL     1     128.940 127.898 123.044  1.00  0.00    -0.453 OA
ATOM     24  O   UNL     1     129.669 129.586 124.603  1.00  0.00    -0.454 OA
ATOM     25  C   UNL     1     128.901 129.291 123.419  1.00  0.00    +0.468 C 
ENDBRANCH  16  17
ENDBRANCH  15  16
ENDBRANCH   6  15
TORSDOF 4
ENDMDL
